 argument  1 = DEA_NH3_B3LYP-D_CounterPoise.nw
                                         
                                         
 
 
              Northwest Computational Chemistry Package (NWChem) 6.0
              ------------------------------------------------------
 
 
                    Environmental Molecular Sciences Laboratory
                       Pacific Northwest National Laboratory
                                Richland, WA 99352
 
                              Copyright (c) 1994-2010
                       Pacific Northwest National Laboratory
                            Battelle Memorial Institute
 
             NWChem is an open-source computational chemistry package
                        distributed under the terms of the
                      Educational Community License (ECL) 2.0
             A copy of the license is included with this distribution
                              in the LICENSE.TXT file
 
                                  ACKNOWLEDGMENT
                                  --------------

            This software and its documentation were developed at the
            EMSL at Pacific Northwest National Laboratory, a multiprogram
            national laboratory, operated for the U.S. Department of Energy
            by Battelle under Contract Number DE-AC05-76RL01830. Support
            for this work was provided by the Department of Energy Office
            of Biological and Environmental Research, Office of Basic
            Energy Sciences, and the Office of Advanced Scientific Computing.


           Job information
           ---------------

    hostname      = cn11
    program       = /aracbox/app/nwchem/6.0/intel_11/x86_64/nwchem-6.0/bin/LINUX64/nwchem
    date          = Sun Sep 23 17:29:19 2012

    compiled      = Thu_Aug_25_22:03:59_2011
    source        = /aracbox/app/nwchem/6.0/intel_11/x86_64/nwchem-6.0
    nwchem branch = 6.0
    input         = DEA_NH3_B3LYP-D_CounterPoise.nw
    prefix        = DEA_NH3_B3LYP-D_CounterPoise.
    data base     = ./DEA_NH3_B3LYP-D_CounterPoise.db
    status        = startup
    nproc         =        8
    time left     =     -1s



           Memory information
           ------------------

    heap     =  419430401 doubles =   3200.0 Mbytes
    stack    =  419430401 doubles =   3200.0 Mbytes
    global   =  838860800 doubles =   6400.0 Mbytes (distinct from heap & stack)
    total    = 1677721602 doubles =  12800.0 Mbytes
    verify   = yes
    hardfail = no 


           Directory information
           ---------------------
 
  0 permanent = .
  0 scratch   = /tmp
 
 
 
 
                                NWChem Input Module
                                -------------------
 
 
                            DEA_NH3_B3LYP-D_CounterPois
                            ---------------------------

 Scaling coordinates for geometry "geometry" by  1.889725989
 (inverse scale =  0.529177249)

 C1  symmetry detected
 
 
                             Geometry "geometry" -> ""
                             -------------------------
 
 Output coordinates in angstroms (scale by  1.889725989 to convert to a.u.)
 
  No.       Tag          Charge          X              Y              Z
 ---- ---------------- ---------- -------------- -------------- --------------
    1 N                    7.0000     0.04334567    -0.09331031     0.15277973
    2 H                    1.0000     0.82675546    -0.19652557    -0.48603602
    3 H                    1.0000    -1.90503042     0.51551861    -0.48818511
    4 N                    7.0000    -2.77825642     1.03871462    -0.57025385
    5 H                    1.0000    -3.08814921     0.95637440    -1.53088576
    6 C                    6.0000    -0.07073634    -1.31162302     0.93971282
    7 C                    6.0000    -0.20865343    -2.50728202     0.02972830
    8 H                    1.0000    -0.96064685    -1.24135989     1.57118211
    9 H                    1.0000     0.79401970    -1.46555635     1.60135707
   10 H                    1.0000    -0.36566889    -3.41116989     0.62471529
   11 H                    1.0000    -1.06466287    -2.36128810    -0.63407450
   12 O                    8.0000     1.00319970    -2.59908549    -0.72115414
   13 H                    1.0000     0.88764967    -3.26195008    -1.40859872
   14 C                    6.0000     0.28609577     1.07794353     0.98510477
   15 C                    6.0000     0.52184741     2.29015284     0.11842585
   16 H                    1.0000     1.14806753     0.93955291     1.65350462
   17 H                    1.0000    -0.59548178     1.25761566     1.60545466
   18 H                    1.0000     0.65267183     3.17342219     0.74929153
   19 H                    1.0000    -0.34011608     2.44075634    -0.53390310
   20 O                    8.0000     1.70679121     2.03293510    -0.64219572
   21 H                    1.0000     1.77711581     2.70368180    -1.32790865
   22 H                    1.0000    -3.47339635     0.56715287    -0.00462613
 
      Atomic Mass 
      ----------- 
 
      N                 14.003070
      H                  1.007825
      C                 12.000000
      O                 15.994910
 

 Effective nuclear repulsion energy (a.u.)     415.9096689212

            Nuclear Dipole moment (a.u.) 
            ----------------------------
        X                 Y               Z
 ---------------- ---------------- ----------------
     0.0000000000     0.0000000000     0.0000000000
 
 
            XYZ format geometry
            -------------------
    22
 geometry
 N                     0.04334567    -0.09331031     0.15277973
 H                     0.82675546    -0.19652557    -0.48603602
 H                    -1.90503042     0.51551861    -0.48818511
 N                    -2.77825642     1.03871462    -0.57025385
 H                    -3.08814921     0.95637440    -1.53088576
 C                    -0.07073634    -1.31162302     0.93971282
 C                    -0.20865343    -2.50728202     0.02972830
 H                    -0.96064685    -1.24135989     1.57118211
 H                     0.79401970    -1.46555635     1.60135707
 H                    -0.36566889    -3.41116989     0.62471529
 H                    -1.06466287    -2.36128810    -0.63407450
 O                     1.00319970    -2.59908549    -0.72115414
 H                     0.88764967    -3.26195008    -1.40859872
 C                     0.28609577     1.07794353     0.98510477
 C                     0.52184741     2.29015284     0.11842585
 H                     1.14806753     0.93955291     1.65350462
 H                    -0.59548178     1.25761566     1.60545466
 H                     0.65267183     3.17342219     0.74929153
 H                    -0.34011608     2.44075634    -0.53390310
 O                     1.70679121     2.03293510    -0.64219572
 H                     1.77711581     2.70368180    -1.32790865
 H                    -3.47339635     0.56715287    -0.00462613
 
 ==============================================================================
                                internuclear distances
 ------------------------------------------------------------------------------
       center one      |      center two      | atomic units |  angstroms
 ------------------------------------------------------------------------------
    2 H                |   1 N                |     1.92016  |     1.01611
    4 N                |   3 H                |     1.92992  |     1.02127
    5 H                |   4 N                |     1.91379  |     1.01273
    6 C                |   1 N                |     2.74925  |     1.45484
    7 C                |   6 C                |     2.85135  |     1.50887
    8 H                |   6 C                |     2.06632  |     1.09345
    9 H                |   6 C                |     2.07807  |     1.09967
   10 H                |   7 C                |     2.06636  |     1.09347
   11 H                |   7 C                |     2.06552  |     1.09302
   12 O                |   7 C                |     2.69962  |     1.42858
   13 H                |  12 O                |     1.81780  |     0.96194
   14 C                |   1 N                |     2.75377  |     1.45723
   15 C                |  14 C                |     2.85102  |     1.50870
   16 H                |  14 C                |     2.07776  |     1.09950
   17 H                |  14 C                |     2.06516  |     1.09284
   18 H                |  15 C                |     2.06601  |     1.09328
   19 H                |  15 C                |     2.06248  |     1.09142
   20 O                |  15 C                |     2.70488  |     1.43136
   21 H                |  20 O                |     1.81753  |     0.96179
   22 H                |   4 N                |     1.91369  |     1.01268
 ------------------------------------------------------------------------------
                         number of included internuclear distances:         20
 ==============================================================================



 ==============================================================================
                                 internuclear angles
 ------------------------------------------------------------------------------
        center 1       |       center 2       |       center 3       |  degrees
 ------------------------------------------------------------------------------
    2 H                |   1 N                |   6 C                |   108.39
    2 H                |   1 N                |  14 C                |   108.20
    6 C                |   1 N                |  14 C                |   112.16
    3 H                |   4 N                |   5 H                |   107.23
    3 H                |   4 N                |  22 H                |   107.67
    5 H                |   4 N                |  22 H                |   106.37
    1 N                |   6 C                |   7 C                |   110.15
    1 N                |   6 C                |   8 H                |   108.81
    1 N                |   6 C                |   9 H                |   112.40
    7 C                |   6 C                |   8 H                |   108.95
    7 C                |   6 C                |   9 H                |   108.89
    8 H                |   6 C                |   9 H                |   107.55
    6 C                |   7 C                |  10 H                |   109.88
    6 C                |   7 C                |  11 H                |   109.39
    6 C                |   7 C                |  12 O                |   106.88
   10 H                |   7 C                |  11 H                |   109.17
   10 H                |   7 C                |  12 O                |   110.77
   11 H                |   7 C                |  12 O                |   110.71
    7 C                |  12 O                |  13 H                |   108.54
    1 N                |  14 C                |  15 C                |   110.10
    1 N                |  14 C                |  16 H                |   112.13
    1 N                |  14 C                |  17 H                |   108.78
   15 C                |  14 C                |  16 H                |   109.14
   15 C                |  14 C                |  17 H                |   108.67
   16 H                |  14 C                |  17 H                |   107.94
   14 C                |  15 C                |  18 H                |   109.65
   14 C                |  15 C                |  19 H                |   109.32
   14 C                |  15 C                |  20 O                |   106.87
   18 H                |  15 C                |  19 H                |   109.14
   18 H                |  15 C                |  20 O                |   110.66
   19 H                |  15 C                |  20 O                |   111.16
   15 C                |  20 O                |  21 H                |   108.30
 ------------------------------------------------------------------------------
                            number of included internuclear angles:         32
 ==============================================================================



                      Basis "ao basis" -> "" (cartesian)
                      -----
  H (Hydrogen)
  ------------
            Exponent  Coefficients 
       -------------- ---------------------------------------------------------
  1 S  3.38700000E+01  0.006068
  1 S  5.09500000E+00  0.045308
  1 S  1.15900000E+00  0.202822
 
  2 S  3.25800000E-01  1.000000
 
  3 S  1.02700000E-01  1.000000
 
  4 S  2.52600000E-02  1.000000
 
  5 P  1.40700000E+00  1.000000
 
  6 P  3.88000000E-01  1.000000
 
  7 P  1.02000000E-01  1.000000
 
  8 D  1.05700000E+00  1.000000
 
  9 D  2.47000000E-01  1.000000
 
  O (Oxygen)
  ----------
            Exponent  Coefficients 
       -------------- ---------------------------------------------------------
  1 S  1.53300000E+04  0.000508
  1 S  2.29900000E+03  0.003929
  1 S  5.22400000E+02  0.020243
  1 S  1.47300000E+02  0.079181
  1 S  4.75500000E+01  0.230687
  1 S  1.67600000E+01  0.433118
  1 S  6.20700000E+00  0.350260
  1 S  6.88200000E-01 -0.008154
 
  2 S  1.53300000E+04 -0.000115
  2 S  2.29900000E+03 -0.000895
  2 S  5.22400000E+02 -0.004636
  2 S  1.47300000E+02 -0.018724
  2 S  4.75500000E+01 -0.058463
  2 S  1.67600000E+01 -0.136463
  2 S  6.20700000E+00 -0.175740
  2 S  6.88200000E-01  0.603418
 
  3 S  1.75200000E+00  1.000000
 
  4 S  2.38400000E-01  1.000000
 
  5 S  7.37600000E-02  1.000000
 
  6 P  3.44600000E+01  0.015928
  6 P  7.74900000E+00  0.099740
  6 P  2.28000000E+00  0.310492
 
  7 P  7.15600000E-01  1.000000
 
  8 P  2.14000000E-01  1.000000
 
  9 P  5.97400000E-02  1.000000
 
 10 D  2.31400000E+00  1.000000
 
 11 D  6.45000000E-01  1.000000
 
 12 D  2.14000000E-01  1.000000
 
 13 F  1.42800000E+00  1.000000
 
 14 F  5.00000000E-01  1.000000
 
  C (Carbon)
  ----------
            Exponent  Coefficients 
       -------------- ---------------------------------------------------------
  1 S  8.23600000E+03  0.000531
  1 S  1.23500000E+03  0.004108
  1 S  2.80800000E+02  0.021087
  1 S  7.92700000E+01  0.081853
  1 S  2.55900000E+01  0.234817
  1 S  8.99700000E+00  0.434401
  1 S  3.31900000E+00  0.346129
  1 S  3.64300000E-01 -0.008983
 
  2 S  8.23600000E+03 -0.000113
  2 S  1.23500000E+03 -0.000878
  2 S  2.80800000E+02 -0.004540
  2 S  7.92700000E+01 -0.018133
  2 S  2.55900000E+01 -0.055760
  2 S  8.99700000E+00 -0.126895
  2 S  3.31900000E+00 -0.170352
  2 S  3.64300000E-01  0.598684
 
  3 S  9.05900000E-01  1.000000
 
  4 S  1.28500000E-01  1.000000
 
  5 S  4.40200000E-02  1.000000
 
  6 P  1.87100000E+01  0.014031
  6 P  4.13300000E+00  0.086866
  6 P  1.20000000E+00  0.290216
 
  7 P  3.82700000E-01  1.000000
 
  8 P  1.20900000E-01  1.000000
 
  9 P  3.56900000E-02  1.000000
 
 10 D  1.09700000E+00  1.000000
 
 11 D  3.18000000E-01  1.000000
 
 12 D  1.00000000E-01  1.000000
 
 13 F  7.61000000E-01  1.000000
 
 14 F  2.68000000E-01  1.000000
 
  N (Nitrogen)
  ------------
            Exponent  Coefficients 
       -------------- ---------------------------------------------------------
  1 S  1.14200000E+04  0.000523
  1 S  1.71200000E+03  0.004045
  1 S  3.89300000E+02  0.020775
  1 S  1.10000000E+02  0.080727
  1 S  3.55700000E+01  0.233074
  1 S  1.25400000E+01  0.433501
  1 S  4.64400000E+00  0.347472
  1 S  5.11800000E-01 -0.008508
 
  2 S  1.14200000E+04 -0.000115
  2 S  1.71200000E+03 -0.000895
  2 S  3.89300000E+02 -0.004624
  2 S  1.10000000E+02 -0.018528
  2 S  3.55700000E+01 -0.057339
  2 S  1.25400000E+01 -0.132076
  2 S  4.64400000E+00 -0.172510
  2 S  5.11800000E-01  0.599944
 
  3 S  1.29300000E+00  1.000000
 
  4 S  1.78700000E-01  1.000000
 
  5 S  5.76000000E-02  1.000000
 
  6 P  2.66300000E+01  0.014670
  6 P  5.94800000E+00  0.091764
  6 P  1.74200000E+00  0.298683
 
  7 P  5.55000000E-01  1.000000
 
  8 P  1.72500000E-01  1.000000
 
  9 P  4.91000000E-02  1.000000
 
 10 D  1.65400000E+00  1.000000
 
 11 D  4.69000000E-01  1.000000
 
 12 D  1.51000000E-01  1.000000
 
 13 F  1.09300000E+00  1.000000
 
 14 F  3.64000000E-01  1.000000
 
  bqH
  ---
            Exponent  Coefficients 
       -------------- ---------------------------------------------------------
  1 S  3.38700000E+01  0.006068
  1 S  5.09500000E+00  0.045308
  1 S  1.15900000E+00  0.202822
 
  2 S  3.25800000E-01  1.000000
 
  3 S  1.02700000E-01  1.000000
 
  4 S  2.52600000E-02  1.000000
 
  5 P  1.40700000E+00  1.000000
 
  6 P  3.88000000E-01  1.000000
 
  7 P  1.02000000E-01  1.000000
 
  8 D  1.05700000E+00  1.000000
 
  9 D  2.47000000E-01  1.000000
 
  bqO
  ---
            Exponent  Coefficients 
       -------------- ---------------------------------------------------------
  1 S  1.53300000E+04  0.000508
  1 S  2.29900000E+03  0.003929
  1 S  5.22400000E+02  0.020243
  1 S  1.47300000E+02  0.079181
  1 S  4.75500000E+01  0.230687
  1 S  1.67600000E+01  0.433118
  1 S  6.20700000E+00  0.350260
  1 S  6.88200000E-01 -0.008154
 
  2 S  1.53300000E+04 -0.000115
  2 S  2.29900000E+03 -0.000895
  2 S  5.22400000E+02 -0.004636
  2 S  1.47300000E+02 -0.018724
  2 S  4.75500000E+01 -0.058463
  2 S  1.67600000E+01 -0.136463
  2 S  6.20700000E+00 -0.175740
  2 S  6.88200000E-01  0.603418
 
  3 S  1.75200000E+00  1.000000
 
  4 S  2.38400000E-01  1.000000
 
  5 S  7.37600000E-02  1.000000
 
  6 P  3.44600000E+01  0.015928
  6 P  7.74900000E+00  0.099740
  6 P  2.28000000E+00  0.310492
 
  7 P  7.15600000E-01  1.000000
 
  8 P  2.14000000E-01  1.000000
 
  9 P  5.97400000E-02  1.000000
 
 10 D  2.31400000E+00  1.000000
 
 11 D  6.45000000E-01  1.000000
 
 12 D  2.14000000E-01  1.000000
 
 13 F  1.42800000E+00  1.000000
 
 14 F  5.00000000E-01  1.000000
 
  bqC
  ---
            Exponent  Coefficients 
       -------------- ---------------------------------------------------------
  1 S  8.23600000E+03  0.000531
  1 S  1.23500000E+03  0.004108
  1 S  2.80800000E+02  0.021087
  1 S  7.92700000E+01  0.081853
  1 S  2.55900000E+01  0.234817
  1 S  8.99700000E+00  0.434401
  1 S  3.31900000E+00  0.346129
  1 S  3.64300000E-01 -0.008983
 
  2 S  8.23600000E+03 -0.000113
  2 S  1.23500000E+03 -0.000878
  2 S  2.80800000E+02 -0.004540
  2 S  7.92700000E+01 -0.018133
  2 S  2.55900000E+01 -0.055760
  2 S  8.99700000E+00 -0.126895
  2 S  3.31900000E+00 -0.170352
  2 S  3.64300000E-01  0.598684
 
  3 S  9.05900000E-01  1.000000
 
  4 S  1.28500000E-01  1.000000
 
  5 S  4.40200000E-02  1.000000
 
  6 P  1.87100000E+01  0.014031
  6 P  4.13300000E+00  0.086866
  6 P  1.20000000E+00  0.290216
 
  7 P  3.82700000E-01  1.000000
 
  8 P  1.20900000E-01  1.000000
 
  9 P  3.56900000E-02  1.000000
 
 10 D  1.09700000E+00  1.000000
 
 11 D  3.18000000E-01  1.000000
 
 12 D  1.00000000E-01  1.000000
 
 13 F  7.61000000E-01  1.000000
 
 14 F  2.68000000E-01  1.000000
 
  bqN
  ---
            Exponent  Coefficients 
       -------------- ---------------------------------------------------------
  1 S  1.14200000E+04  0.000523
  1 S  1.71200000E+03  0.004045
  1 S  3.89300000E+02  0.020775
  1 S  1.10000000E+02  0.080727
  1 S  3.55700000E+01  0.233074
  1 S  1.25400000E+01  0.433501
  1 S  4.64400000E+00  0.347472
  1 S  5.11800000E-01 -0.008508
 
  2 S  1.14200000E+04 -0.000115
  2 S  1.71200000E+03 -0.000895
  2 S  3.89300000E+02 -0.004624
  2 S  1.10000000E+02 -0.018528
  2 S  3.55700000E+01 -0.057339
  2 S  1.25400000E+01 -0.132076
  2 S  4.64400000E+00 -0.172510
  2 S  5.11800000E-01  0.599944
 
  3 S  1.29300000E+00  1.000000
 
  4 S  1.78700000E-01  1.000000
 
  5 S  5.76000000E-02  1.000000
 
  6 P  2.66300000E+01  0.014670
  6 P  5.94800000E+00  0.091764
  6 P  1.74200000E+00  0.298683
 
  7 P  5.55000000E-01  1.000000
 
  8 P  1.72500000E-01  1.000000
 
  9 P  4.91000000E-02  1.000000
 
 10 D  1.65400000E+00  1.000000
 
 11 D  4.69000000E-01  1.000000
 
 12 D  1.51000000E-01  1.000000
 
 13 F  1.09300000E+00  1.000000
 
 14 F  3.64000000E-01  1.000000
 


 Summary of "ao basis" -> "" (cartesian)
 ------------------------------------------------------------------------------
       Tag                 Description            Shells   Functions and Types
 ---------------- ------------------------------  ------  ---------------------
 H                        aug-cc-pvtz                9       25   4s3p2d
 O                        aug-cc-pvtz               14       55   5s4p3d2f
 C                        aug-cc-pvtz               14       55   5s4p3d2f
 N                        aug-cc-pvtz               14       55   5s4p3d2f
 bqH                      aug-cc-pvtz                9       25   4s3p2d
 bqO                      aug-cc-pvtz               14       55   5s4p3d2f
 bqC                      aug-cc-pvtz               14       55   5s4p3d2f
 bqN                      aug-cc-pvtz               14       55   5s4p3d2f


 
 
                     Input BSSE Module - Counter Poise Approach
                   --------------------------------------------
 

    supermolecule geometry name = geometry                                          
             number of monomers =    2
                   total charge =    0

        atoms for each monomer  

              monomer     first      :   1  2  6  7  8  9 10 11 12 13 14 15 16 17 18 19 20 21
              monomer     second     :   3  4  5 22 
 
 
                              BSSE Energy Correction
                              ----------------------
 
 
 
                                 NWChem DFT Module
                                 -----------------
 
 
                            DEA_NH3_B3LYP-D_CounterPois
 
 
  Caching 1-el integrals 
 
            General Information
            -------------------
          SCF calculation type: DFT
          Wavefunction type:  closed shell.
          No. of atoms     :    22
          No. of electrons :    68
           Alpha electrons :    34
            Beta electrons :    34
          Charge           :     0
          Spin multiplicity:     1
          Use of symmetry is: off; symmetry adaption is: off
          Maximum number of iterations: 100
          This is a Direct SCF calculation.
          AO basis - number of functions:   790
                     number of shells:   238
          Convergence on energy requested: 1.00D-06
          Convergence on density requested: 1.00D-05
          Convergence on gradient requested: 5.00D-04
 
              XC Information
              --------------
                         B3LYP Method XC Potential
                     Hartree-Fock (Exact) Exchange  0.200          
                        Slater Exchange Functional  0.800 local    
                    Becke 1988 Exchange Functional  0.720 non-local
              Lee-Yang-Parr Correlation Functional  0.810          
                  VWN I RPA Correlation Functional  0.190 local    
 
             Grid Information
             ----------------
          Grid used for XC integration:  medium    
          Radial quadrature: Mura-Knowles        
          Angular quadrature: Lebedev. 
          Tag              B.-S. Rad. Rad. Pts. Rad. Cut. Ang. Pts.
          ---              ---------- --------- --------- ---------
          N                   0.65       49          18.0       434
          H                   0.35       45          20.0       434
          C                   0.70       49          19.0       434
          O                   0.60       49          18.0       434
          Grid pruning is: on 
          Number of quadrature shells:  1022
          Spatial weights used:  Erf1
 
          Convergence Information
          -----------------------
          Convergence aids based upon iterative change in 
          total energy or number of iterations. 
          Levelshifting, if invoked, occurs when the 
          HOMO/LUMO gap drops below (HL_TOL): 1.00D-02
          DIIS, if invoked, will attempt to extrapolate 
          using up to (NFOCK): 10 stored Fock matrices.

                    Damping( 0%)  Levelshifting(0.5)       DIIS
                  --------------- ------------------- ---------------
          dE  on:    start            ASAP                start   
          dE off:    2 iters        100 iters           100 iters 

 
      Screening Tolerance Information
      -------------------------------
          Density screening/tol_rho: 1.00D-10
          AO Gaussian exp screening on grid/accAOfunc:  14
          CD Gaussian exp screening on grid/accCDfunc:  20
          XC Gaussian exp screening on grid/accXCfunc:  20
          Schwarz screening/accCoul: 1.00D-08

 
 WARNING : Found    16 linear dependencies 
 S eigenvalue threshold:     1.00000E-05
 Smallest S eigenvalue :     5.41056E-07
 Largest  S eigenvalue :     9.52081E-06
 

 !! The overlap matrix has  16 vectors deemed linearly dependent with
    eigenvalues:
 5.41D-07 7.12D-07 1.29D-06 1.75D-06 2.05D-06 2.46D-06 3.01D-06 3.58D-06
 3.78D-06 4.17D-06 5.74D-06 6.22D-06 6.75D-06 7.41D-06 7.98D-06 9.52D-06
 
 
      Superposition of Atomic Density Guess
      -------------------------------------
 
 Sum of atomic energies:        -415.86301517
 
      Non-variational initial energy
      ------------------------------

 Total energy =    -420.608981
 1-e energy   =   -1388.580376
 2-e energy   =     552.061726
 HOMO         =      -0.298605
 LUMO         =       0.009097
 
   Time after variat. SCF:    289.0
   Time prior to 1st pass:    289.0
 WARNING: error on integrated density =  0.31D-03
 greater than required accuracy of  0.10D-05

           Memory utilization after 1st SCF pass: 
           Heap Space remaining (MW):      419.42           419416016
          Stack Space remaining (MW):      419.43           419425903

   convergence    iter        energy       DeltaE   RMS-Dens  Diis-err    time
 ---------------- ----- ----------------- --------- --------- ---------  ------
 d= 0,ls=0.0,diis     1   -420.4347955320 -8.36D+02  8.20D+01  9.29D+00   624.1
 WARNING: error on integrated density =  0.93D-05
 greater than required accuracy of  0.10D-05
 d= 0,ls=0.0,diis     2   -404.0282039747  1.64D+01  2.07D+00  1.07D+02  1021.2
 WARNING: error on integrated density =  0.93D-05
 greater than required accuracy of  0.10D-05
 d= 0,ls=0.0,diis     3   -405.6668691634 -1.64D+00  1.08D-01  9.10D+01  1418.4
 WARNING: error on integrated density =  0.93D-05
 greater than required accuracy of  0.10D-05
 d= 0,ls=0.0,diis     4   -405.5917486608  7.51D-02  2.13D-01  9.13D+01  1815.5
 WARNING: error on integrated density =  0.93D-05
 greater than required accuracy of  0.10D-05
 d= 0,ls=0.0,diis     5   -405.9976990219 -4.06D-01  2.19D-01  8.76D+01  2212.5
 WARNING: error on integrated density =  0.93D-05
 greater than required accuracy of  0.10D-05
 d= 0,ls=0.0,diis     6   -406.0700794592 -7.24D-02  1.97D-01  8.73D+01  2609.6
 WARNING: error on integrated density =  0.93D-05
 greater than required accuracy of  0.10D-05
 d= 0,ls=0.0,diis     7   -406.0748476149 -4.77D-03  1.92D-01  8.68D+01  3006.7
 WARNING: error on integrated density =  0.93D-05
 greater than required accuracy of  0.10D-05
 d= 0,ls=0.0,diis     8   -406.0930644600 -1.82D-02  5.09D-02  8.62D+01  3403.9
 WARNING: error on integrated density =  0.93D-05
 greater than required accuracy of  0.10D-05
 d= 0,ls=0.0,diis     9   -406.1030712997 -1.00D-02  2.20D-01  8.60D+01  3800.6
 WARNING: error on integrated density =  0.93D-05
 greater than required accuracy of  0.10D-05
 d= 0,ls=0.0,diis    10   -406.1718114958 -6.87D-02  1.65D-02  8.54D+01  4196.6
 WARNING: error on integrated density =  0.93D-05
 greater than required accuracy of  0.10D-05
 d= 0,ls=0.0,diis    11   -406.1586459657  1.32D-02  8.07D+01  8.55D+01  4593.2
 d= 0,ls=0.0,diis    12   -419.5318089186 -1.34D+01  2.77D-03  1.21D+01  4939.2
 d= 0,ls=0.0,diis    13   -420.9114704506 -1.38D+00  6.14D-04  7.15D-01  5285.0
 d= 0,ls=0.0,diis    14   -420.9642832011 -5.28D-02  2.08D-04  1.02D-01  5629.4
 d= 0,ls=0.0,diis    15   -420.9750194916 -1.07D-02  6.04D-05  1.22D-02  5973.6
 d= 0,ls=0.0,diis    16   -420.9761627529 -1.14D-03  1.69D-05  4.39D-04  6318.1
 d= 0,ls=0.0,diis    17   -420.9762071662 -4.44D-05  5.16D-06  9.44D-05  6662.2
 d= 0,ls=0.0,diis    18   -420.9762166289 -9.46D-06  1.13D-06  2.29D-06  7006.3
 d= 0,ls=0.0,diis    19   -420.9762168195 -1.91D-07  3.87D-07  5.86D-07  7350.9


          s6 scale factor =        1.050000000000
              vdW contrib =       -0.022442539949




         Total DFT energy =     -420.998659359486
      One electron energy =    -1397.543314405584
           Coulomb energy =      618.714342916674
    Exchange-Corr. energy =      -58.056914251820
 Nuclear repulsion energy =      415.909668921193

 Numeric. integr. density =       68.000014532729

     Total iterative time =   7061.9s


 
                       DFT Final Molecular Orbital Analysis
                       ------------------------------------
 
 Vector    8  Occ=2.000000D+00  E=-1.019102D+01
              MO Center=  2.9D-01,  1.1D+00,  9.9D-01, r^2= 2.8D-02
   Bfn.  Coefficient  Atom+Function         Bfn.  Coefficient  Atom+Function  
  ----- ------------  ---------------      ----- ------------  ---------------
   476      1.009049  14 C  s         
 
 Vector    9  Occ=2.000000D+00  E=-1.030670D+00
              MO Center=  7.7D-01, -2.6D+00, -6.8D-01, r^2= 8.1D-01
   Bfn.  Coefficient  Atom+Function         Bfn.  Coefficient  Atom+Function  
  ----- ------------  ---------------      ----- ------------  ---------------
   397      0.453774  12 O  s               399      0.300798  12 O  s         
   242      0.152795   7 C  s         
 
 Vector   10  Occ=2.000000D+00  E=-1.023375D+00
              MO Center=  1.5D+00,  2.1D+00, -6.0D-01, r^2= 8.3D-01
   Bfn.  Coefficient  Atom+Function         Bfn.  Coefficient  Atom+Function  
  ----- ------------  ---------------      ----- ------------  ---------------
   687     -0.454410  20 O  s               689     -0.299174  20 O  s         
   532     -0.151330  15 C  s         
 
 Vector   11  Occ=2.000000D+00  E=-9.089132D-01
              MO Center=  1.8D-01, -1.3D-01,  3.8D-01, r^2= 1.5D+00
   Bfn.  Coefficient  Atom+Function         Bfn.  Coefficient  Atom+Function  
  ----- ------------  ---------------      ----- ------------  ---------------
     2     -0.377807   1 N  s               187     -0.182210   6 C  s         
   477     -0.176311  14 C  s         
 
 Vector   12  Occ=2.000000D+00  E=-8.363237D-01
              MO Center= -2.8D+00,  8.5D-01, -6.2D-01, r^2= 7.4D-01
   Bfn.  Coefficient  Atom+Function         Bfn.  Coefficient  Atom+Function  
  ----- ------------  ---------------      ----- ------------  ---------------
   107      0.443788   4 N  s               109      0.175643   4 N  s         
 
 Vector   13  Occ=2.000000D+00  E=-7.636108D-01
              MO Center=  1.8D-01, -2.9D-01,  4.4D-01, r^2= 4.8D+00
   Bfn.  Coefficient  Atom+Function         Bfn.  Coefficient  Atom+Function  
  ----- ------------  ---------------      ----- ------------  ---------------
   187      0.237896   6 C  s               477     -0.230287  14 C  s         
   242      0.200059   7 C  s               532     -0.175479  15 C  s         
 
 Vector   14  Occ=2.000000D+00  E=-7.083279D-01
              MO Center=  2.8D-01, -2.5D-03,  2.1D-01, r^2= 6.0D+00
   Bfn.  Coefficient  Atom+Function         Bfn.  Coefficient  Atom+Function  
  ----- ------------  ---------------      ----- ------------  ---------------
   532     -0.244182  15 C  s               242     -0.232031   7 C  s         
     2      0.183379   1 N  s         
 
 Vector   15  Occ=2.000000D+00  E=-6.089720D-01
              MO Center=  5.7D-02, -1.4D+00,  3.6D-01, r^2= 4.0D+00
   Bfn.  Coefficient  Atom+Function         Bfn.  Coefficient  Atom+Function  
  ----- ------------  ---------------      ----- ------------  ---------------
   187     -0.261309   6 C  s               242      0.228194   7 C  s         
 
 Vector   16  Occ=2.000000D+00  E=-6.034712D-01
              MO Center=  4.4D-01,  1.1D+00,  4.6D-01, r^2= 3.3D+00
   Bfn.  Coefficient  Atom+Function         Bfn.  Coefficient  Atom+Function  
  ----- ------------  ---------------      ----- ------------  ---------------
   477      0.253452  14 C  s               532     -0.216069  15 C  s         
 
 Vector   17  Occ=2.000000D+00  E=-5.343807D-01
              MO Center=  3.0D-01, -1.6D+00, -1.5D-01, r^2= 4.7D+00
   Bfn.  Coefficient  Atom+Function         Bfn.  Coefficient  Atom+Function  
  ----- ------------  ---------------      ----- ------------  ---------------
   452      0.176415  13 H  s               403     -0.156387  12 O  pz        
 
 Vector   18  Occ=2.000000D+00  E=-5.252802D-01
              MO Center=  8.4D-01,  1.2D+00, -2.2D-01, r^2= 5.5D+00
   Bfn.  Coefficient  Atom+Function         Bfn.  Coefficient  Atom+Function  
  ----- ------------  ---------------      ----- ------------  ---------------
   742     -0.185981  21 H  s               693      0.161056  20 O  pz        
   689      0.151050  20 O  s               696      0.150997  20 O  pz        
 
 Vector   19  Occ=2.000000D+00  E=-4.899939D-01
              MO Center=  1.6D-01, -4.0D-01,  3.5D-01, r^2= 5.4D+00
   Bfn.  Coefficient  Atom+Function         Bfn.  Coefficient  Atom+Function  
  ----- ------------  ---------------      ----- ------------  ---------------
     7      0.127433   1 N  py               10      0.119742   1 N  py        
 
 Vector   20  Occ=2.000000D+00  E=-4.767512D-01
              MO Center=  2.6D-01,  9.4D-02,  1.2D-01, r^2= 5.7D+00
   Bfn.  Coefficient  Atom+Function         Bfn.  Coefficient  Atom+Function  
  ----- ------------  ---------------      ----- ------------  ---------------
     6      0.123351   1 N  px                9      0.114395   1 N  px        
    57      0.113166   2 H  s         
 
 Vector   21  Occ=2.000000D+00  E=-4.584234D-01
              MO Center=  1.4D-01, -1.8D-01,  6.8D-02, r^2= 6.1D+00
   Bfn.  Coefficient  Atom+Function         Bfn.  Coefficient  Atom+Function  
  ----- ------------  ---------------      ----- ------------  ---------------
   247      0.134366   7 C  py                8     -0.126834   1 N  pz        
   250      0.122300   7 C  py        
 
 Vector   22  Occ=2.000000D+00  E=-4.489411D-01
              MO Center= -3.0D+00,  8.9D-01, -6.3D-01, r^2= 1.1D+00
   Bfn.  Coefficient  Atom+Function         Bfn.  Coefficient  Atom+Function  
  ----- ------------  ---------------      ----- ------------  ---------------
   113     -0.260257   4 N  pz              116     -0.242977   4 N  pz        
   767     -0.214271  22 H  s               162      0.206655   5 H  s         
   766     -0.155020  22 H  s               768     -0.150715  22 H  s         
   163      0.150480   5 H  s         
 
 Vector   23  Occ=2.000000D+00  E=-4.429781D-01
              MO Center= -1.8D+00,  7.2D-01, -4.1D-01, r^2= 4.8D+00
   Bfn.  Coefficient  Atom+Function         Bfn.  Coefficient  Atom+Function  
  ----- ------------  ---------------      ----- ------------  ---------------
   111     -0.229926   4 N  px              114     -0.219096   4 N  px        
 
 Vector   24  Occ=2.000000D+00  E=-4.214224D-01
              MO Center=  8.5D-02, -3.9D-01,  2.3D-01, r^2= 6.3D+00
   Bfn.  Coefficient  Atom+Function         Bfn.  Coefficient  Atom+Function  
  ----- ------------  ---------------      ----- ------------  ---------------
   248     -0.120587   7 C  pz              251     -0.113727   7 C  pz        
   191      0.113206   6 C  px        
 
 Vector   25  Occ=2.000000D+00  E=-4.012598D-01
              MO Center=  2.2D-01, -3.0D-02,  4.9D-01, r^2= 5.5D+00
   Bfn.  Coefficient  Atom+Function         Bfn.  Coefficient  Atom+Function  
  ----- ------------  ---------------      ----- ------------  ---------------
   193     -0.139441   6 C  pz              196     -0.134457   6 C  pz        
    10     -0.130388   1 N  py                7     -0.129609   1 N  py        
 
 Vector   26  Occ=2.000000D+00  E=-3.966815D-01
              MO Center=  8.0D-01, -9.8D-02,  3.4D-02, r^2= 5.7D+00
   Bfn.  Coefficient  Atom+Function         Bfn.  Coefficient  Atom+Function  
  ----- ------------  ---------------      ----- ------------  ---------------
   689      0.139803  20 O  s               401     -0.138280  12 O  px        
   399     -0.137010  12 O  s               692     -0.135819  20 O  py        
   404     -0.135638  12 O  px              695     -0.129836  20 O  py        
 
 Vector   27  Occ=2.000000D+00  E=-3.776309D-01
              MO Center=  2.9D-01, -2.2D-01,  6.6D-01, r^2= 4.7D+00
   Bfn.  Coefficient  Atom+Function         Bfn.  Coefficient  Atom+Function  
  ----- ------------  ---------------      ----- ------------  ---------------
   481     -0.152663  14 C  px        
 
 Vector   28  Occ=2.000000D+00  E=-3.683153D-01
              MO Center=  2.0D-01,  2.3D-01,  5.4D-01, r^2= 3.9D+00
   Bfn.  Coefficient  Atom+Function         Bfn.  Coefficient  Atom+Function  
  ----- ------------  ---------------      ----- ------------  ---------------
     8      0.156997   1 N  pz               11      0.155624   1 N  pz        
 
 Vector   29  Occ=2.000000D+00  E=-3.539551D-01
              MO Center=  7.1D-01, -5.8D-01, -2.7D-01, r^2= 6.5D+00
   Bfn.  Coefficient  Atom+Function         Bfn.  Coefficient  Atom+Function  
  ----- ------------  ---------------      ----- ------------  ---------------
   400     -0.149132  12 O  s               692      0.148688  20 O  py        
   401     -0.144666  12 O  px              695      0.142933  20 O  py        
   404     -0.142878  12 O  px        
 
 Vector   30  Occ=2.000000D+00  E=-3.297168D-01
              MO Center=  5.7D-01,  2.9D-01,  9.0D-02, r^2= 6.1D+00
   Bfn.  Coefficient  Atom+Function         Bfn.  Coefficient  Atom+Function  
  ----- ------------  ---------------      ----- ------------  ---------------
   540      0.140082  15 C  py              482     -0.139991  14 C  py        
   537      0.139053  15 C  py              485     -0.128816  14 C  py        
 
 Vector   31  Occ=2.000000D+00  E=-2.886485D-01
              MO Center=  5.8D-01, -2.6D+00, -4.9D-01, r^2= 1.8D+00
   Bfn.  Coefficient  Atom+Function         Bfn.  Coefficient  Atom+Function  
  ----- ------------  ---------------      ----- ------------  ---------------
   405     -0.236483  12 O  py              402     -0.234214  12 O  py        
   406      0.214299  12 O  pz              403      0.210459  12 O  pz        
   408     -0.182231  12 O  py        
 
 Vector   32  Occ=2.000000D+00  E=-2.822206D-01
              MO Center=  1.2D+00,  2.1D+00, -4.0D-01, r^2= 2.2D+00
   Bfn.  Coefficient  Atom+Function         Bfn.  Coefficient  Atom+Function  
  ----- ------------  ---------------      ----- ------------  ---------------
   696      0.210744  20 O  pz              693      0.206527  20 O  pz        
   695      0.190458  20 O  py              692      0.188653  20 O  py        
   694      0.178544  20 O  px              691      0.178037  20 O  px        
 
 Vector   33  Occ=2.000000D+00  E=-2.587346D-01
              MO Center= -2.4D+00,  1.1D+00, -4.6D-01, r^2= 2.3D+00
   Bfn.  Coefficient  Atom+Function         Bfn.  Coefficient  Atom+Function  
  ----- ------------  ---------------      ----- ------------  ---------------
   115      0.289405   4 N  py              112      0.285822   4 N  py        
   110      0.216197   4 N  s               109      0.184860   4 N  s         
   118      0.176813   4 N  py              107      0.159205   4 N  s         
 
 Vector   34  Occ=2.000000D+00  E=-2.359550D-01
              MO Center= -2.3D-01,  3.6D-02,  2.6D-01, r^2= 2.9D+00
   Bfn.  Coefficient  Atom+Function         Bfn.  Coefficient  Atom+Function  
  ----- ------------  ---------------      ----- ------------  ---------------
     6      0.252617   1 N  px                9      0.247875   1 N  px        
    12      0.157571   1 N  px               11      0.150701   1 N  pz        
 
 Vector   35  Occ=0.000000D+00  E=-1.882674D-02
              MO Center= -9.1D-01, -1.7D+00, -1.0D+00, r^2= 2.0D+01
   Bfn.  Coefficient  Atom+Function         Bfn.  Coefficient  Atom+Function  
  ----- ------------  ---------------      ----- ------------  ---------------
    84     -1.336500   3 H  s               374      0.834014  11 H  s         
   245     -0.667346   7 C  s               164      0.662645   5 H  s         
   454      0.636751  13 H  s               480     -0.635730  14 C  s         
   190     -0.619090   6 C  s               201      0.569539   6 C  py        
   535     -0.563447  15 C  s               400      0.453315  12 O  s         
 
 Vector   36  Occ=0.000000D+00  E=-7.946425D-03
              MO Center=  7.3D-01,  8.5D-01, -1.2D+00, r^2= 2.5D+01
   Bfn.  Coefficient  Atom+Function         Bfn.  Coefficient  Atom+Function  
  ----- ------------  ---------------      ----- ------------  ---------------
   491      1.063902  14 C  py              201      0.980105   6 C  py        
   744     -0.872954  21 H  s               690     -0.800437  20 O  s         
   349      0.780079  10 H  s                84      0.759743   3 H  s         
   639     -0.758971  18 H  s               454      0.678499  13 H  s         
   400      0.533868  12 O  s               664     -0.447495  19 H  s         
 
 Vector   37  Occ=0.000000D+00  E=-4.988318D-03
              MO Center= -9.9D-01, -2.7D-01, -5.4D-01, r^2= 2.5D+01
   Bfn.  Coefficient  Atom+Function         Bfn.  Coefficient  Atom+Function  
  ----- ------------  ---------------      ----- ------------  ---------------
    84      2.001857   3 H  s               769     -1.006520  22 H  s         
   299     -0.996428   8 H  s               454      0.980208  13 H  s         
   744      0.873281  21 H  s               374     -0.721047  11 H  s         
   164     -0.632647   5 H  s               491     -0.567796  14 C  py        
   453      0.524825  13 H  s               614     -0.504032  17 H  s         
 
 Vector   38  Occ=0.000000D+00  E= 1.545370D-03
              MO Center= -2.8D-01, -5.4D-01,  1.4D+00, r^2= 2.4D+01
   Bfn.  Coefficient  Atom+Function         Bfn.  Coefficient  Atom+Function  
  ----- ------------  ---------------      ----- ------------  ---------------
   374     -1.765143  11 H  s               349      1.458290  10 H  s         
    84      1.224959   3 H  s               589      1.116028  16 H  s         
   164     -0.977486   5 H  s               190     -0.971648   6 C  s         
   324      0.971244   9 H  s               664     -0.915127  19 H  s         
   639      0.887663  18 H  s               257     -0.798361   7 C  pz        
 
 Vector   39  Occ=0.000000D+00  E= 1.381889D-02
              MO Center= -7.6D-02, -2.0D-01,  1.0D+00, r^2= 2.9D+01
   Bfn.  Coefficient  Atom+Function         Bfn.  Coefficient  Atom+Function  
  ----- ------------  ---------------      ----- ------------  ---------------
   349     -2.437606  10 H  s               639      1.776075  18 H  s         
   614      1.669842  17 H  s               299     -1.370031   8 H  s         
   201     -1.350506   6 C  py              491     -1.149466  14 C  py        
    16     -1.050643   1 N  py              744     -1.020305  21 H  s         
   454      1.006699  13 H  s               200     -0.979815   6 C  px        
 
 Vector   40  Occ=0.000000D+00  E= 2.019242D-02
              MO Center=  5.0D-01,  4.9D-01,  6.9D-01, r^2= 2.9D+01
   Bfn.  Coefficient  Atom+Function         Bfn.  Coefficient  Atom+Function  
  ----- ------------  ---------------      ----- ------------  ---------------
   639      2.784896  18 H  s               324     -2.310485   9 H  s         
   374      1.445541  11 H  s                59     -1.348346   2 H  s         
   349      1.250835  10 H  s               546     -1.104643  15 C  py        
   200      0.986179   6 C  px              491     -0.835834  14 C  py        
   589     -0.783814  16 H  s               110      0.748036   4 N  s         
 
 Vector   41  Occ=0.000000D+00  E= 2.611803D-02
              MO Center= -1.6D+00, -2.5D-01,  2.4D-01, r^2= 3.0D+01
   Bfn.  Coefficient  Atom+Function         Bfn.  Coefficient  Atom+Function  
  ----- ------------  ---------------      ----- ------------  ---------------
   299      3.338078   8 H  s               324     -2.915437   9 H  s         
   164     -2.593349   5 H  s                84      2.463979   3 H  s         
   200      2.324903   6 C  px              349     -2.258927  10 H  s         
   664     -1.542645  19 H  s                15     -1.406062   1 N  px        
   163     -1.019110   5 H  s               256     -0.994884   7 C  py        
 
 Vector   42  Occ=0.000000D+00  E= 2.785266D-02
              MO Center= -5.1D-01,  6.5D-02,  1.8D-01, r^2= 3.1D+01
   Bfn.  Coefficient  Atom+Function         Bfn.  Coefficient  Atom+Function  
  ----- ------------  ---------------      ----- ------------  ---------------
   374      4.400843  11 H  s               589      4.348668  16 H  s         
   664     -3.176292  19 H  s               614     -2.870597  17 H  s         
   490     -2.261170  14 C  px               16     -1.955529   1 N  py        
   349     -1.699779  10 H  s               491      1.665640  14 C  py        
   257      1.346137   7 C  pz              245     -1.182251   7 C  s         
 
 Vector   43  Occ=0.000000D+00  E= 3.508291D-02
              MO Center= -2.3D+00,  8.3D-02,  3.4D-01, r^2= 2.8D+01
   Bfn.  Coefficient  Atom+Function         Bfn.  Coefficient  Atom+Function  
  ----- ------------  ---------------      ----- ------------  ---------------
   769      4.138939  22 H  s                84     -2.963945   3 H  s         
   299     -2.555599   8 H  s               614     -2.514549  17 H  s         
   349      2.075470  10 H  s               589      1.526173  16 H  s         
   490     -1.515012  14 C  px              190      1.450269   6 C  s         
   639      1.429372  18 H  s               245      1.336526   7 C  s         
 
 Vector   44  Occ=0.000000D+00  E= 4.661845D-02
              MO Center= -6.3D-01,  1.8D-02,  4.4D-01, r^2= 3.4D+01
   Bfn.  Coefficient  Atom+Function         Bfn.  Coefficient  Atom+Function  
  ----- ------------  ---------------      ----- ------------  ---------------
   480     -4.950283  14 C  s                84     -4.709371   3 H  s         
   324     -4.494739   9 H  s               614      3.743462  17 H  s         
   349      3.711695  10 H  s               245      3.638571   7 C  s         
   164      3.091149   5 H  s               639     -2.878930  18 H  s         
   201      2.709600   6 C  py              373     -1.996585  11 H  s         
 
 Vector   45  Occ=0.000000D+00  E= 5.021377D-02
              MO Center= -7.8D-01, -1.6D-01,  9.2D-02, r^2= 3.4D+01
   Bfn.  Coefficient  Atom+Function         Bfn.  Coefficient  Atom+Function  
  ----- ------------  ---------------      ----- ------------  ---------------
    84     -5.833832   3 H  s               299      5.824866   8 H  s         
   190     -5.315847   6 C  s               535      4.275818  15 C  s         
   349     -3.687908  10 H  s               614     -3.506041  17 H  s         
   639      3.219431  18 H  s               164      3.178394   5 H  s         
    59     -2.436269   2 H  s               454      2.077215  13 H  s         
 
 Vector   46  Occ=0.000000D+00  E= 5.026470D-02
              MO Center= -3.1D-01,  1.8D-01, -2.4D-01, r^2= 3.3D+01
   Bfn.  Coefficient  Atom+Function         Bfn.  Coefficient  Atom+Function  
  ----- ------------  ---------------      ----- ------------  ---------------
    84      8.283020   3 H  s               664     -7.062437  19 H  s         
   374     -6.317614  11 H  s               639      4.919406  18 H  s         
   324     -4.050782   9 H  s               349      3.351001  10 H  s         
    59      3.261623   2 H  s               299      3.249182   8 H  s         
   535      3.206315  15 C  s               190     -2.889749   6 C  s         
 
 Vector   47  Occ=0.000000D+00  E= 5.424008D-02
              MO Center=  1.2D-01,  9.5D-01,  5.1D-01, r^2= 3.3D+01
   Bfn.  Coefficient  Atom+Function         Bfn.  Coefficient  Atom+Function  
  ----- ------------  ---------------      ----- ------------  ---------------
   589      7.837777  16 H  s               614     -7.726510  17 H  s         
   664      7.021219  19 H  s               299      6.658915   8 H  s         
   324     -5.797836   9 H  s               490     -4.972635  14 C  px        
   190      4.134993   6 C  s               200      4.089455   6 C  px        
   535     -3.637051  15 C  s               374     -2.938163  11 H  s         
 
 Vector   48  Occ=0.000000D+00  E= 5.851281D-02
              MO Center=  9.2D-02, -3.6D-01, -1.0D+00, r^2= 2.8D+01
   Bfn.  Coefficient  Atom+Function         Bfn.  Coefficient  Atom+Function  
  ----- ------------  ---------------      ----- ------------  ---------------
    84      9.261899   3 H  s                59     -4.696721   2 H  s         
   480      4.273018  14 C  s               190      4.271640   6 C  s         
   664     -4.139192  19 H  s               374     -3.443379  11 H  s         
    15      2.784657   1 N  px              257     -2.685250   7 C  pz        
   400     -2.490190  12 O  s               589      2.252503  16 H  s         
 
 Vector   49  Occ=0.000000D+00  E= 6.246591D-02
              MO Center=  1.4D-01, -1.9D+00, -1.3D+00, r^2= 3.2D+01
   Bfn.  Coefficient  Atom+Function         Bfn.  Coefficient  Atom+Function  
  ----- ------------  ---------------      ----- ------------  ---------------
    84      9.381310   3 H  s                59     -4.472291   2 H  s         
   245      4.401929   7 C  s               480     -4.252845  14 C  s         
   454      3.881344  13 H  s               201      3.699732   6 C  py        
   299     -3.351667   8 H  s               257      2.999052   7 C  pz        
   164     -2.617295   5 H  s               453      2.494898  13 H  s         
 
 Vector   50  Occ=0.000000D+00  E= 6.764641D-02
              MO Center=  4.1D-01,  8.0D-01, -1.0D+00, r^2= 3.2D+01
   Bfn.  Coefficient  Atom+Function         Bfn.  Coefficient  Atom+Function  
  ----- ------------  ---------------      ----- ------------  ---------------
   491      7.549473  14 C  py              201      5.660800   6 C  py        
   547     -5.183679  15 C  pz              744     -2.935381  21 H  s         
   664     -2.794367  19 H  s               374      2.610487  11 H  s         
   480     -2.502958  14 C  s                16     -2.058413   1 N  py        
   257      2.006656   7 C  pz              508     -2.006572  14 C  dyy       
 
 Vector   51  Occ=0.000000D+00  E= 7.073655D-02
              MO Center= -6.1D-02,  1.5D-01,  1.4D-01, r^2= 2.6D+01
   Bfn.  Coefficient  Atom+Function         Bfn.  Coefficient  Atom+Function  
  ----- ------------  ---------------      ----- ------------  ---------------
   190     -5.935795   6 C  s               201     -4.939565   6 C  py        
   257     -3.999726   7 C  pz               84      3.983923   3 H  s         
   614     -3.960140  17 H  s               589      3.867240  16 H  s         
   374     -3.420619  11 H  s               164     -3.072859   5 H  s         
   349      2.817741  10 H  s                15      2.754439   1 N  px        
 
 Vector   52  Occ=0.000000D+00  E= 8.145558D-02
              MO Center=  3.4D-01, -6.7D-01,  2.5D+00, r^2= 2.4D+01
   Bfn.  Coefficient  Atom+Function         Bfn.  Coefficient  Atom+Function  
  ----- ------------  ---------------      ----- ------------  ---------------
   245     -7.003607   7 C  s               535     -5.413130  15 C  s         
   492     -4.759532  14 C  pz              202     -4.599972   6 C  pz        
   614      3.682460  17 H  s               324      3.380380   9 H  s         
    17      3.098394   1 N  pz              299      2.917224   8 H  s         
   480      2.885434  14 C  s                59     -2.646118   2 H  s         
 
 Vector   53  Occ=0.000000D+00  E= 8.362542D-02
              MO Center= -3.8D-01, -4.4D-01,  5.7D-01, r^2= 3.3D+01
   Bfn.  Coefficient  Atom+Function         Bfn.  Coefficient  Atom+Function  
  ----- ------------  ---------------      ----- ------------  ---------------
   201      6.681469   6 C  py              480     -5.716515  14 C  s         
   614     -4.745684  17 H  s               299      4.692013   8 H  s         
   491      3.855437  14 C  py               16      2.924462   1 N  py        
   245      2.892371   7 C  s               349      2.890580  10 H  s         
   535     -2.587375  15 C  s               492      2.507049  14 C  pz        
 
 Vector   54  Occ=0.000000D+00  E= 8.715954D-02
              MO Center= -5.5D-02, -4.3D-01,  6.5D-01, r^2= 2.9D+01
   Bfn.  Coefficient  Atom+Function         Bfn.  Coefficient  Atom+Function  
  ----- ------------  ---------------      ----- ------------  ---------------
   190      7.624470   6 C  s               491      7.312102  14 C  py        
   535     -5.279861  15 C  s               349     -4.654797  10 H  s         
   324      3.934225   9 H  s               202     -3.811948   6 C  pz        
   256     -3.472188   7 C  py              690      3.100155  20 O  s         
    59      3.055240   2 H  s                84     -2.977432   3 H  s         
 
 Vector   55  Occ=0.000000D+00  E= 8.877310D-02
              MO Center=  8.7D-02,  1.5D+00,  7.4D-01, r^2= 3.0D+01
   Bfn.  Coefficient  Atom+Function         Bfn.  Coefficient  Atom+Function  
  ----- ------------  ---------------      ----- ------------  ---------------
    16      8.665337   1 N  py              639     -6.822895  18 H  s         
   546      5.213969  15 C  py              374     -4.916920  11 H  s         
   480      4.566729  14 C  s               201     -3.992305   6 C  py        
   257     -3.964872   7 C  pz              349      3.781990  10 H  s         
   547      3.317399  15 C  pz              400      2.970897  12 O  s         
 
 Vector   56  Occ=0.000000D+00  E= 9.385494D-02
              MO Center= -5.5D-01, -5.7D-01,  8.6D-01, r^2= 2.8D+01
   Bfn.  Coefficient  Atom+Function         Bfn.  Coefficient  Atom+Function  
  ----- ------------  ---------------      ----- ------------  ---------------
    84     -4.528894   3 H  s               374     -4.471851  11 H  s         
   110      4.094976   4 N  s               245      4.002882   7 C  s         
   324      3.995657   9 H  s               480     -3.676497  14 C  s         
   639      3.614209  18 H  s                59      3.575530   2 H  s         
   492      3.456271  14 C  pz              299     -3.367389   8 H  s         
 
 Vector   57  Occ=0.000000D+00  E= 9.742168D-02
              MO Center= -8.8D-01, -9.7D-01,  4.9D-01, r^2= 2.7D+01
   Bfn.  Coefficient  Atom+Function         Bfn.  Coefficient  Atom+Function  
  ----- ------------  ---------------      ----- ------------  ---------------
    84     -9.091426   3 H  s               664      6.807999  19 H  s         
   299     -6.333810   8 H  s               256      6.199251   7 C  py        
   245      6.038037   7 C  s               200     -5.085559   6 C  px        
   349      5.083804  10 H  s               589      4.953535  16 H  s         
   400     -4.466817  12 O  s               480     -4.340064  14 C  s         
 
 Vector   58  Occ=0.000000D+00  E= 9.836876D-02
              MO Center=  1.9D-01, -1.7D-01,  9.3D-01, r^2= 2.8D+01
   Bfn.  Coefficient  Atom+Function         Bfn.  Coefficient  Atom+Function  
  ----- ------------  ---------------      ----- ------------  ---------------
   324      9.573390   9 H  s               200     -5.149072   6 C  px        
   589     -4.555908  16 H  s               256     -4.196279   7 C  py        
   201      3.976838   6 C  py              614     -3.827690  17 H  s         
   349     -3.719458  10 H  s               690     -3.653651  20 O  s         
   299     -3.541231   8 H  s               664      3.202870  19 H  s         
 
 Vector   59  Occ=0.000000D+00  E= 9.956071D-02
              MO Center=  5.1D-01,  5.9D-01,  7.4D-01, r^2= 2.8D+01
   Bfn.  Coefficient  Atom+Function         Bfn.  Coefficient  Atom+Function  
  ----- ------------  ---------------      ----- ------------  ---------------
   589      9.804966  16 H  s               245     -5.784815   7 C  s         
   490     -5.601752  14 C  px              480      5.178013  14 C  s         
    59      4.430886   2 H  s               324     -4.324762   9 H  s         
   614     -4.106203  17 H  s               546      4.070512  15 C  py        
   374      3.993793  11 H  s               664     -3.682320  19 H  s         
 
 Vector   60  Occ=0.000000D+00  E= 1.064113D-01
              MO Center= -3.7D-01,  8.7D-01,  1.3D-01, r^2= 2.7D+01
   Bfn.  Coefficient  Atom+Function         Bfn.  Coefficient  Atom+Function  
  ----- ------------  ---------------      ----- ------------  ---------------
   546      6.348300  15 C  py              374     -5.428777  11 H  s         
   535     -4.674132  15 C  s               639     -4.660550  18 H  s         
    16      4.192014   1 N  py               84      3.742535   3 H  s         
    59      3.382931   2 H  s               491     -3.168236  14 C  py        
   492      2.712809  14 C  pz              614      2.650923  17 H  s         
 
 Vector   61  Occ=0.000000D+00  E= 1.147479D-01
              MO Center= -9.9D-01,  3.4D-01, -6.5D-01, r^2= 2.8D+01
   Bfn.  Coefficient  Atom+Function         Bfn.  Coefficient  Atom+Function  
  ----- ------------  ---------------      ----- ------------  ---------------
   664     -9.352662  19 H  s               374     -6.760767  11 H  s         
    84      6.748065   3 H  s               690      6.705956  20 O  s         
   400      4.756999  12 O  s               110     -4.741964   4 N  s         
   163      4.578998   5 H  s               190      4.171057   6 C  s         
   743     -4.106846  21 H  s               535     -3.824823  15 C  s         
 
 Vector   62  Occ=0.000000D+00  E= 1.198303D-01
              MO Center= -1.1D+00,  1.8D-01,  3.4D-01, r^2= 2.7D+01
   Bfn.  Coefficient  Atom+Function         Bfn.  Coefficient  Atom+Function  
  ----- ------------  ---------------      ----- ------------  ---------------
   200      7.562867   6 C  px              490     -7.354751  14 C  px        
   614     -6.351729  17 H  s               110     -5.861911   4 N  s         
   768      4.857453  22 H  s               255     -4.352283   7 C  px        
    84      4.011678   3 H  s               245      3.588853   7 C  s         
   545      3.260326  15 C  px              664     -3.170752  19 H  s         
 
 Vector   63  Occ=0.000000D+00  E= 1.245108D-01
              MO Center= -1.6D+00, -4.9D-01, -3.7D-01, r^2= 2.6D+01
   Bfn.  Coefficient  Atom+Function         Bfn.  Coefficient  Atom+Function  
  ----- ------------  ---------------      ----- ------------  ---------------
   245      7.753034   7 C  s                84     -7.228977   3 H  s         
   400     -6.003388  12 O  s               453      5.699204  13 H  s         
   535      5.160631  15 C  s               769      3.969251  22 H  s         
   190      3.628477   6 C  s               664     -3.415125  19 H  s         
   201      3.360580   6 C  py              545     -2.946755  15 C  px        
 
 Vector   64  Occ=0.000000D+00  E= 1.260533D-01
              MO Center= -2.8D-01,  2.5D-01, -2.6D-01, r^2= 2.4D+01
   Bfn.  Coefficient  Atom+Function         Bfn.  Coefficient  Atom+Function  
  ----- ------------  ---------------      ----- ------------  ---------------
    59      5.829135   2 H  s                17      5.519592   1 N  pz        
   201     -5.313113   6 C  py              690     -5.139845  20 O  s         
   110      4.670867   4 N  s               743      4.587468  21 H  s         
   245     -4.466404   7 C  s               257     -4.430232   7 C  pz        
   480      4.404645  14 C  s               374     -4.364371  11 H  s         
 
 Vector   65  Occ=0.000000D+00  E= 1.264755D-01
              MO Center= -1.0D+00,  1.3D-01, -5.6D-02, r^2= 2.6D+01
   Bfn.  Coefficient  Atom+Function         Bfn.  Coefficient  Atom+Function  
  ----- ------------  ---------------      ----- ------------  ---------------
   299     -7.768976   8 H  s                84      5.001607   3 H  s         
   200     -4.625825   6 C  px               15      4.163566   1 N  px        
   490      3.898648  14 C  px              190     -3.882729   6 C  s         
   324      3.575180   9 H  s               491     -3.452115  14 C  py        
   614      3.224250  17 H  s               547      3.120985  15 C  pz        
 
 Vector   66  Occ=0.000000D+00  E= 1.292417D-01
              MO Center= -7.7D-01,  8.0D-01,  4.3D-01, r^2= 2.6D+01
   Bfn.  Coefficient  Atom+Function         Bfn.  Coefficient  Atom+Function  
  ----- ------------  ---------------      ----- ------------  ---------------
   614    -10.871539  17 H  s               299      9.124673   8 H  s         
   190     -7.605404   6 C  s               664      6.727840  19 H  s         
   490     -6.046921  14 C  px              201     -4.857764   6 C  py        
   200      4.551554   6 C  px              491     -4.243157  14 C  py        
   374     -4.031015  11 H  s               480      3.853044  14 C  s         
 
 Vector   67  Occ=0.000000D+00  E= 1.306559D-01
              MO Center= -5.8D-01,  5.2D-01, -1.1D-01, r^2= 2.7D+01
   Bfn.  Coefficient  Atom+Function         Bfn.  Coefficient  Atom+Function  
  ----- ------------  ---------------      ----- ------------  ---------------
    84     10.751242   3 H  s               664     -7.303512  19 H  s         
   110     -7.091395   4 N  s               490      6.175058  14 C  px        
   400     -5.411725  12 O  s               190      5.133834   6 C  s         
   453      4.809652  13 H  s               690      4.754830  20 O  s         
   535     -4.533047  15 C  s               743     -3.985165  21 H  s         
 
 Vector   68  Occ=0.000000D+00  E= 1.384815D-01
              MO Center= -4.7D-02, -6.0D-01,  6.5D-01, r^2= 2.4D+01
   Bfn.  Coefficient  Atom+Function         Bfn.  Coefficient  Atom+Function  
  ----- ------------  ---------------      ----- ------------  ---------------
   480    -15.373186  14 C  s               190      9.870810   6 C  s         
   245      9.655967   7 C  s               201      9.068489   6 C  py        
   491      7.847337  14 C  py              200      6.296959   6 C  px        
   324     -5.783646   9 H  s               535     -4.849547  15 C  s         
   373     -4.683019  11 H  s               663      4.149426  19 H  s         
 
 Vector   69  Occ=0.000000D+00  E= 1.401439D-01
              MO Center= -4.6D-01,  1.1D+00, -6.7D-02, r^2= 2.4D+01
   Bfn.  Coefficient  Atom+Function         Bfn.  Coefficient  Atom+Function  
  ----- ------------  ---------------      ----- ------------  ---------------
   535     15.230158  15 C  s               190    -14.371892   6 C  s         
   690     -9.513614  20 O  s               664     -7.039720  19 H  s         
   245      6.432259   7 C  s               491     -5.729044  14 C  py        
   743      5.727887  21 H  s               639      5.092390  18 H  s         
    84      3.950181   3 H  s               589     -3.871888  16 H  s         
 
 Vector   70  Occ=0.000000D+00  E= 1.485156D-01
              MO Center=  2.0D-01, -1.2D-01, -2.8D-01, r^2= 2.2D+01
   Bfn.  Coefficient  Atom+Function         Bfn.  Coefficient  Atom+Function  
  ----- ------------  ---------------      ----- ------------  ---------------
    16      9.907703   1 N  py              400      8.007993  12 O  s         
   690     -5.834956  20 O  s               245     -5.685193   7 C  s         
   202     -5.437895   6 C  pz              453     -4.848733  13 H  s         
   190      4.717469   6 C  s               492      4.134202  14 C  pz        
   410     -3.432886  12 O  px              638     -3.174994  18 H  s         
 
 Vector   71  Occ=0.000000D+00  E= 1.514783D-01
              MO Center=  3.8D-01, -3.6D-02,  1.5D-01, r^2= 2.0D+01
   Bfn.  Coefficient  Atom+Function         Bfn.  Coefficient  Atom+Function  
  ----- ------------  ---------------      ----- ------------  ---------------
    15     10.838786   1 N  px               84      9.506291   3 H  s         
   400     -6.023093  12 O  s               190      5.654481   6 C  s         
   614     -5.626385  17 H  s               200     -4.688389   6 C  px        
   491      4.360529  14 C  py              535     -4.311841  15 C  s         
   492      4.252640  14 C  pz              299     -3.899184   8 H  s         
 
 Vector   72  Occ=0.000000D+00  E= 1.597564D-01
              MO Center=  9.9D-02, -7.2D-01, -1.3D-01, r^2= 2.1D+01
   Bfn.  Coefficient  Atom+Function         Bfn.  Coefficient  Atom+Function  
  ----- ------------  ---------------      ----- ------------  ---------------
   480     12.505487  14 C  s               245     -9.867004   7 C  s         
   190      8.722095   6 C  s               535     -6.314847  15 C  s         
    84     -4.690153   3 H  s                 5      4.566186   1 N  s         
   373      4.090538  11 H  s                 4     -3.977147   1 N  s         
   490     -3.869392  14 C  px              492     -3.795574  14 C  pz        
 
 Vector   73  Occ=0.000000D+00  E= 1.634921D-01
              MO Center= -6.3D-01,  2.1D-01, -6.9D-01, r^2= 2.1D+01
   Bfn.  Coefficient  Atom+Function         Bfn.  Coefficient  Atom+Function  
  ----- ------------  ---------------      ----- ------------  ---------------
   190     11.791653   6 C  s               480     11.672050  14 C  s         
   245     -9.419228   7 C  s                84     -8.971136   3 H  s         
   535     -8.424262  15 C  s               201     -7.165168   6 C  py        
    16      6.818228   1 N  py              373      5.869325  11 H  s         
   400     -5.738923  12 O  s               491     -5.282935  14 C  py        
 
 Vector   74  Occ=0.000000D+00  E= 1.659663D-01
              MO Center= -4.4D-01, -2.1D-02, -1.5D-01, r^2= 2.2D+01
   Bfn.  Coefficient  Atom+Function         Bfn.  Coefficient  Atom+Function  
  ----- ------------  ---------------      ----- ------------  ---------------
    84     13.438113   3 H  s               110     -8.291818   4 N  s         
    59     -5.381348   2 H  s               201     -5.299040   6 C  py        
   374     -5.170617  11 H  s                16      5.101177   1 N  py        
   480      4.567071  14 C  s               535      4.171887  15 C  s         
   743      4.100123  21 H  s               589      4.066617  16 H  s         
 
 Vector   75  Occ=0.000000D+00  E= 1.737505D-01
              MO Center=  4.2D-01,  3.0D-01, -1.0D-01, r^2= 2.1D+01
   Bfn.  Coefficient  Atom+Function         Bfn.  Coefficient  Atom+Function  
  ----- ------------  ---------------      ----- ------------  ---------------
   201     12.098274   6 C  py              491     12.011640  14 C  py        
   480     -9.054619  14 C  s               190      8.060115   6 C  s         
   245      7.925144   7 C  s               547     -4.853813  15 C  pz        
   257      4.822205   7 C  pz              535     -4.712992  15 C  s         
    84      4.564701   3 H  s               324      4.371494   9 H  s         
 
 Vector   76  Occ=0.000000D+00  E= 1.808228D-01
              MO Center= -4.0D-01,  2.4D-01, -1.1D-02, r^2= 2.2D+01
   Bfn.  Coefficient  Atom+Function         Bfn.  Coefficient  Atom+Function  
  ----- ------------  ---------------      ----- ------------  ---------------
   190    -24.939335   6 C  s               535     22.385407  15 C  s         
   491    -17.590675  14 C  py              245     12.634263   7 C  s         
   663    -10.663288  19 H  s               201    -10.535720   6 C  py        
   547      8.557703  15 C  pz                5     -7.805621   1 N  s         
     4      6.325326   1 N  s               400     -6.280626  12 O  s         
 
 Vector   77  Occ=0.000000D+00  E= 1.820626D-01
              MO Center=  5.6D-04, -4.9D-01,  4.4D-01, r^2= 2.0D+01
   Bfn.  Coefficient  Atom+Function         Bfn.  Coefficient  Atom+Function  
  ----- ------------  ---------------      ----- ------------  ---------------
   201     -7.708173   6 C  py              535     -7.640892  15 C  s         
   257     -7.351278   7 C  pz              400     -7.331457  12 O  s         
   491      6.002452  14 C  py              245     -5.607314   7 C  s         
    15      5.603826   1 N  px              110      4.347610   4 N  s         
    59      4.310946   2 H  s                 5      4.147115   1 N  s         
 
 Vector   78  Occ=0.000000D+00  E= 1.885611D-01
              MO Center=  6.0D-01, -4.4D-01, -2.0D-01, r^2= 2.1D+01
   Bfn.  Coefficient  Atom+Function         Bfn.  Coefficient  Atom+Function  
  ----- ------------  ---------------      ----- ------------  ---------------
   190    -13.831987   6 C  s               535      9.862202  15 C  s         
   201     -8.618410   6 C  py              491     -8.330897  14 C  py        
   690     -6.683729  20 O  s               480      6.094359  14 C  s         
   400      5.488609  12 O  s                84     -5.285345   3 H  s         
   245     -5.115805   7 C  s               490     -4.757101  14 C  px        
 
 Vector   79  Occ=0.000000D+00  E= 1.905852D-01
              MO Center=  1.4D-01,  5.4D-01,  6.8D-02, r^2= 1.8D+01
   Bfn.  Coefficient  Atom+Function         Bfn.  Coefficient  Atom+Function  
  ----- ------------  ---------------      ----- ------------  ---------------
   480     11.760887  14 C  s               245     -7.592678   7 C  s         
    17      7.436054   1 N  pz              690     -7.001758  20 O  s         
   201     -6.114068   6 C  py              547     -5.753491  15 C  pz        
   664     -4.445491  19 H  s               373      4.431022  11 H  s         
   491      4.384490  14 C  py                5      4.267414   1 N  s         
 
 Vector   80  Occ=0.000000D+00  E= 1.962890D-01
              MO Center=  2.0D-01,  8.5D-03, -2.2D-01, r^2= 2.0D+01
   Bfn.  Coefficient  Atom+Function         Bfn.  Coefficient  Atom+Function  
  ----- ------------  ---------------      ----- ------------  ---------------
   245    -23.460061   7 C  s               480     16.100394  14 C  s         
   535    -15.322908  15 C  s               201    -11.352990   6 C  py        
   190      7.620646   6 C  s                 5      7.500604   1 N  s         
   373      7.467106  11 H  s               690      7.373234  20 O  s         
   400      7.001753  12 O  s               546      6.887866  15 C  py        
 
 Vector   81  Occ=0.000000D+00  E= 2.012407D-01
              MO Center= -7.9D-02,  7.6D-02, -2.0D-01, r^2= 2.2D+01
   Bfn.  Coefficient  Atom+Function         Bfn.  Coefficient  Atom+Function  
  ----- ------------  ---------------      ----- ------------  ---------------
   245     10.010389   7 C  s               480     -9.513359  14 C  s         
   400     -5.073849  12 O  s               690     -5.034450  20 O  s         
    58      4.682915   2 H  s               535      4.585197  15 C  s         
   201      4.379003   6 C  py              200      4.182851   6 C  px        
    59     -3.958118   2 H  s               488      3.388359  14 C  py        
 
 Vector   82  Occ=0.000000D+00  E= 2.041633D-01
              MO Center= -1.5D-01,  3.6D-01,  6.1D-01, r^2= 2.0D+01
   Bfn.  Coefficient  Atom+Function         Bfn.  Coefficient  Atom+Function  
  ----- ------------  ---------------      ----- ------------  ---------------
   190     20.127630   6 C  s               535    -12.211471  15 C  s         
   480     10.906748  14 C  s               245    -10.669324   7 C  s         
   491      8.288588  14 C  py                5      6.385857   1 N  s         
   663      5.374485  19 H  s               202     -4.510327   6 C  pz        
   547     -4.434691  15 C  pz              201     -4.358190   6 C  py        
 
 Vector   83  Occ=0.000000D+00  E= 2.055418D-01
              MO Center= -5.8D-02, -6.9D-01,  2.0D-01, r^2= 2.0D+01
   Bfn.  Coefficient  Atom+Function         Bfn.  Coefficient  Atom+Function  
  ----- ------------  ---------------      ----- ------------  ---------------
   480    -17.502380  14 C  s               245     12.767595   7 C  s         
   201     10.776081   6 C  py               84    -10.343413   3 H  s         
   373     -6.993379  11 H  s               491      6.381657  14 C  py        
   110      6.157824   4 N  s               256      5.132156   7 C  py        
     5     -4.397707   1 N  s               257      4.165793   7 C  pz        
 
 Vector   84  Occ=0.000000D+00  E= 2.152533D-01
              MO Center= -1.1D-01,  1.3D-01, -1.6D-02, r^2= 1.8D+01
   Bfn.  Coefficient  Atom+Function         Bfn.  Coefficient  Atom+Function  
  ----- ------------  ---------------      ----- ------------  ---------------
   245     13.660015   7 C  s               480    -13.244319  14 C  s         
   190     -8.754955   6 C  s               535      7.573730  15 C  s         
   201      5.429559   6 C  py              373     -4.578497  11 H  s         
     5     -4.439005   1 N  s                 4      4.301071   1 N  s         
   202      4.239223   6 C  pz              545     -3.851017  15 C  px        
 
 Vector   85  Occ=0.000000D+00  E= 2.192438D-01
              MO Center= -5.3D-01,  3.8D-01,  1.3D-01, r^2= 1.8D+01
   Bfn.  Coefficient  Atom+Function         Bfn.  Coefficient  Atom+Function  
  ----- ------------  ---------------      ----- ------------  ---------------
   535     14.288588  15 C  s               190    -11.249229   6 C  s         
    84    -10.033363   3 H  s               245      7.006967   7 C  s         
   491     -6.786864  14 C  py              256      5.539375   7 C  py        
   663     -4.991640  19 H  s               690     -4.912923  20 O  s         
     5     -4.891481   1 N  s               743      4.646113  21 H  s         
 
 Vector   86  Occ=0.000000D+00  E= 2.306221D-01
              MO Center= -4.3D-02,  3.8D-01,  1.4D-01, r^2= 2.0D+01
   Bfn.  Coefficient  Atom+Function         Bfn.  Coefficient  Atom+Function  
  ----- ------------  ---------------      ----- ------------  ---------------
   491      7.782727  14 C  py              535     -7.589319  15 C  s         
   201      7.028035   6 C  py              190      6.397937   6 C  s         
   374      5.229253  11 H  s               547     -4.785162  15 C  pz        
   110      4.768110   4 N  s                15      4.649017   1 N  px        
   257      4.423724   7 C  pz              614     -4.117533  17 H  s         
 
 Vector   87  Occ=0.000000D+00  E= 2.327178D-01
              MO Center=  5.1D-01, -7.9D-01,  5.3D-01, r^2= 2.1D+01
   Bfn.  Coefficient  Atom+Function         Bfn.  Coefficient  Atom+Function  
  ----- ------------  ---------------      ----- ------------  ---------------
   535     -8.392050  15 C  s                15      7.507001   1 N  px        
   245     -6.589193   7 C  s               374     -6.098377  11 H  s         
   257     -5.309906   7 C  pz               84      5.072577   3 H  s         
   349      4.896781  10 H  s                59      4.589928   2 H  s         
   664     -4.313926  19 H  s               255     -4.128333   7 C  px        
 
 Vector   88  Occ=0.000000D+00  E= 2.353877D-01
              MO Center= -4.9D-02, -3.6D-01,  4.2D-02, r^2= 2.6D+01
   Bfn.  Coefficient  Atom+Function         Bfn.  Coefficient  Atom+Function  
  ----- ------------  ---------------      ----- ------------  ---------------
   535     15.552533  15 C  s               190    -10.900427   6 C  s         
   546     -8.564209  15 C  py              253     -8.435787   7 C  py        
   491     -7.060088  14 C  py              639      6.927216  18 H  s         
   245     -6.493615   7 C  s               256     -6.406924   7 C  py        
   543     -6.306800  15 C  py              201     -6.207167   6 C  py        
 
 Vector   89  Occ=0.000000D+00  E= 2.391303D-01
              MO Center= -1.7D-01,  5.3D-01,  6.8D-01, r^2= 1.9D+01
   Bfn.  Coefficient  Atom+Function         Bfn.  Coefficient  Atom+Function  
  ----- ------------  ---------------      ----- ------------  ---------------
   690      7.152054  20 O  s               200      6.436121   6 C  px        
    16     -6.076983   1 N  py              492     -5.905972  14 C  pz        
   743     -5.645306  21 H  s               491      4.980157  14 C  py        
   508     -4.899722  14 C  dyy             480      4.895419  14 C  s         
   299      4.421314   8 H  s               324     -3.878130   9 H  s         
 
 Vector   90  Occ=0.000000D+00  E= 2.465280D-01
              MO Center=  9.2D-02,  4.9D-02,  8.7D-02, r^2= 1.8D+01
   Bfn.  Coefficient  Atom+Function         Bfn.  Coefficient  Atom+Function  
  ----- ------------  ---------------      ----- ------------  ---------------
   490      8.220448  14 C  px              664     -7.584646  19 H  s         
   480      7.561208  14 C  s               453      6.308562  13 H  s         
   614      5.377983  17 H  s               190     -4.810401   6 C  s         
    15     -4.764653   1 N  px              535      4.671793  15 C  s         
   547     -4.489950  15 C  pz              218      4.375673   6 C  dyy       
 
 Vector   91  Occ=0.000000D+00  E= 2.530594D-01
              MO Center= -3.1D-01, -4.7D-02,  1.2D-01, r^2= 1.8D+01
   Bfn.  Coefficient  Atom+Function         Bfn.  Coefficient  Atom+Function  
  ----- ------------  ---------------      ----- ------------  ---------------
   190     -7.466490   6 C  s               453      6.561214  13 H  s         
   110     -6.245145   4 N  s               491     -5.786429  14 C  py        
   547      5.711787  15 C  pz              200     -5.511739   6 C  px        
   535      5.434922  15 C  s               480      5.125722  14 C  s         
   664      4.636013  19 H  s               690     -4.135257  20 O  s         
 
 Vector   92  Occ=0.000000D+00  E= 2.546564D-01
              MO Center=  1.3D-02,  1.9D-01,  7.1D-01, r^2= 2.1D+01
   Bfn.  Coefficient  Atom+Function         Bfn.  Coefficient  Atom+Function  
  ----- ------------  ---------------      ----- ------------  ---------------
   200     -9.282446   6 C  px              299     -6.919195   8 H  s         
   245      5.898189   7 C  s               324      5.106577   9 H  s         
   453      4.605331  13 H  s                17     -4.596240   1 N  pz        
   202      4.414131   6 C  pz               15      4.372309   1 N  px        
   543      4.221173  15 C  py              535      4.118640  15 C  s         
 
 Vector   93  Occ=0.000000D+00  E= 2.587415D-01
              MO Center=  3.1D-01,  5.3D-01,  6.4D-01, r^2= 1.8D+01
   Bfn.  Coefficient  Atom+Function         Bfn.  Coefficient  Atom+Function  
  ----- ------------  ---------------      ----- ------------  ---------------
   490     10.238696  14 C  px              190      7.329625   6 C  s         
   743     -7.308879  21 H  s               589     -6.943745  16 H  s         
    15      6.374401   1 N  px              200     -5.526748   6 C  px        
[...]
  ----- ------------  ---------------      ----- ------------  ---------------
   480    -15.918736  14 bq s               245     14.097383   7 bq s         
    16      9.171098   1 bq py              373     -8.651981  11 bq s         
   690      8.331389  20 bq s               453     -7.097513  13 bq s         
   348      6.459712  10 bq s                83      6.380812   3 H  s         
   535     -5.916005  15 bq s               201      5.728328   6 bq py        
 
 Vector   83  Occ=0.000000D+00  E= 3.987791D-01
              MO Center= -2.0D-01, -5.9D-01,  4.8D-02, r^2= 2.0D+01
   Bfn.  Coefficient  Atom+Function         Bfn.  Coefficient  Atom+Function  
  ----- ------------  ---------------      ----- ------------  ---------------
   190      7.090613   6 bq s               400     -6.969386  12 bq s         
   245      5.865127   7 bq s               480      5.075435  14 bq s         
   690     -4.558116  20 bq s               743      4.451034  21 bq s         
   507     -3.597022  14 bq dxz             488     -3.551551  14 bq py        
   109     -3.524683   4 N  s                84      3.522803   3 H  s         
 
 Vector   84  Occ=0.000000D+00  E= 4.045672D-01
              MO Center=  2.9D-01,  3.1D-01, -4.1D-02, r^2= 1.9D+01
   Bfn.  Coefficient  Atom+Function         Bfn.  Coefficient  Atom+Function  
  ----- ------------  ---------------      ----- ------------  ---------------
   400     12.969343  12 bq s               245    -11.475410   7 bq s         
   453     -8.851416  13 bq s               190      7.219331   6 bq s         
    15      6.965322   1 bq px              506     -6.443058  14 bq dxy       
   535     -5.656085  15 bq s               480      5.298356  14 bq s         
   490     -4.185037  14 bq px              201     -3.611223   6 bq py        
 
 Vector   85  Occ=0.000000D+00  E= 4.114256D-01
              MO Center=  4.6D-01,  1.3D-02,  9.0D-02, r^2= 1.9D+01
   Bfn.  Coefficient  Atom+Function         Bfn.  Coefficient  Atom+Function  
  ----- ------------  ---------------      ----- ------------  ---------------
   480     11.411343  14 bq s               743     -9.934112  21 bq s         
   453     -9.456231  13 bq s               245     -8.323791   7 bq s         
   400      6.417601  12 bq s               690      6.163801  20 bq s         
   492     -4.693122  14 bq pz              663     -4.463413  19 bq s         
    15     -4.250676   1 bq px              491     -4.202668  14 bq py        
 
 Vector   86  Occ=0.000000D+00  E= 4.178321D-01
              MO Center= -2.8D-01, -2.0D-01,  2.1D-01, r^2= 1.9D+01
   Bfn.  Coefficient  Atom+Function         Bfn.  Coefficient  Atom+Function  
  ----- ------------  ---------------      ----- ------------  ---------------
   480    -14.900556  14 bq s               245     10.229366   7 bq s         
   373     -8.758641  11 bq s               743      8.433889  21 bq s         
   690     -8.169821  20 bq s               201      6.757985   6 bq py        
   200      6.164490   6 bq px               15     -5.896754   1 bq px        
   535      5.630100  15 bq s               190     -5.162455   6 bq s         
 
 Vector   87  Occ=0.000000D+00  E= 4.224309D-01
              MO Center=  2.6D-01, -8.8D-01, -3.9D-01, r^2= 1.9D+01
   Bfn.  Coefficient  Atom+Function         Bfn.  Coefficient  Atom+Function  
  ----- ------------  ---------------      ----- ------------  ---------------
    16     21.913595   1 bq py              400    -21.093970  12 bq s         
   453     15.599863  13 bq s               245     11.419824   7 bq s         
   690     10.990028  20 bq s               190      9.092030   6 bq s         
   480     -8.665695  14 bq s               491     -7.124594  14 bq py        
   638     -6.601670  18 bq s               508      6.576932  14 bq dyy       
 
 Vector   88  Occ=0.000000D+00  E= 4.281909D-01
              MO Center=  6.3D-01,  4.6D-01, -2.2D-01, r^2= 1.9D+01
   Bfn.  Coefficient  Atom+Function         Bfn.  Coefficient  Atom+Function  
  ----- ------------  ---------------      ----- ------------  ---------------
   690    -16.062304  20 bq s               535     12.305002  15 bq s         
   400     10.564107  12 bq s               542      9.847885  15 bq px        
    16      9.164818   1 bq py              252     -8.602064   7 bq px        
   506     -8.336143  14 bq dxy             561     -7.790713  15 bq dxy       
   271     -7.387914   7 bq dxy             743      7.340658  21 bq s         
 
 Vector   89  Occ=0.000000D+00  E= 4.291673D-01
              MO Center= -9.6D-02,  2.4D-01,  2.0D-01, r^2= 2.0D+01
   Bfn.  Coefficient  Atom+Function         Bfn.  Coefficient  Atom+Function  
  ----- ------------  ---------------      ----- ------------  ---------------
    16     18.928167   1 bq py              190     16.944996   6 bq s         
   216    -15.341314   6 bq dxy             506    -11.876841  14 bq dxy       
   542     11.756622  15 bq px              480     -8.762792  14 bq s         
   638     -7.680152  18 bq s               271     -7.451724   7 bq dxy       
   252     -7.396061   7 bq px              743     -6.973871  21 bq s         
 
 Vector   90  Occ=0.000000D+00  E= 4.352013D-01
              MO Center= -4.0D-02, -1.4D-01,  5.3D-02, r^2= 1.8D+01
   Bfn.  Coefficient  Atom+Function         Bfn.  Coefficient  Atom+Function  
  ----- ------------  ---------------      ----- ------------  ---------------
   480     22.660104  14 bq s                15    -10.513269   1 bq px        
   190     10.067153   6 bq s                16     -7.620275   1 bq py        
     4     -6.891194   1 bq s               252      6.704586   7 bq px        
   298     -6.409541   8 bq s                84     -6.348914   3 H  s         
   690     -6.096252  20 bq s               492     -6.073123  14 bq pz        
 
 Vector   91  Occ=0.000000D+00  E= 4.405248D-01
              MO Center= -3.3D-01,  4.7D-01,  2.0D-01, r^2= 1.9D+01
   Bfn.  Coefficient  Atom+Function         Bfn.  Coefficient  Atom+Function  
  ----- ------------  ---------------      ----- ------------  ---------------
   506     10.645971  14 bq dxy              84     10.315642   3 H  s         
   690     -9.477782  20 bq s               480      9.054919  14 bq s         
   216      7.752220   6 bq dxy             110     -7.687325   4 N  s         
   190     -7.417841   6 bq s               487      6.329599  14 bq px        
   562     -6.098641  15 bq dxz             508     -5.910785  14 bq dyy       
 
 Vector   92  Occ=0.000000D+00  E= 4.440532D-01
              MO Center=  9.3D-02, -6.3D-01, -1.3D-02, r^2= 1.8D+01
   Bfn.  Coefficient  Atom+Function         Bfn.  Coefficient  Atom+Function  
  ----- ------------  ---------------      ----- ------------  ---------------
   190    -22.956436   6 bq s               400    -16.505539  12 bq s         
   535     15.228694  15 bq s               216     13.346547   6 bq dxy       
   245     13.313802   7 bq s                15     12.065433   1 bq px        
   453     12.052087  13 bq s                16    -10.773975   1 bq py        
   690     -9.566645  20 bq s               271      9.067294   7 bq dxy       
 
 Vector   93  Occ=0.000000D+00  E= 4.516273D-01
              MO Center=  1.9D-02,  2.9D-01,  1.6D-01, r^2= 1.9D+01
   Bfn.  Coefficient  Atom+Function         Bfn.  Coefficient  Atom+Function  
  ----- ------------  ---------------      ----- ------------  ---------------
   245     22.316258   7 bq s               190    -19.734170   6 bq s         
   535     18.799897  15 bq s               480    -14.296675  14 bq s         
   373     -9.700029  11 bq s                58      9.014809   2 bq s         
   400     -8.754167  12 bq s                15     -8.401762   1 bq px        
     5     -7.929614   1 bq s                 4      7.759891   1 bq s         
 
 Vector   94  Occ=0.000000D+00  E= 4.539472D-01
              MO Center= -4.5D-01,  3.4D-01, -4.6D-02, r^2= 1.8D+01
   Bfn.  Coefficient  Atom+Function         Bfn.  Coefficient  Atom+Function  
  ----- ------------  ---------------      ----- ------------  ---------------
   190     15.187611   6 bq s               535    -10.086741  15 bq s         
   768     -9.072516  22 H  s               400      8.367632  12 bq s         
    15     -7.031902   1 bq px              542      6.820704  15 bq px        
   271     -6.690302   7 bq dxy             216     -6.555382   6 bq dxy       
   252     -6.132554   7 bq px              110      5.485802   4 N  s         
 
 Vector   95  Occ=0.000000D+00  E= 4.557373D-01
              MO Center= -2.5D-01,  5.4D-01, -1.7D-02, r^2= 1.8D+01
   Bfn.  Coefficient  Atom+Function         Bfn.  Coefficient  Atom+Function  
  ----- ------------  ---------------      ----- ------------  ---------------
   190    -20.567262   6 bq s               480     14.828379  14 bq s         
   491    -13.959560  14 bq py              400     13.822800  12 bq s         
   245    -12.864347   7 bq s               663    -12.575084  19 bq s         
   743    -11.995903  21 bq s               542    -11.302615  15 bq px        
   690     11.214166  20 bq s               561      9.921897  15 bq dxy       
 
 Vector   96  Occ=0.000000D+00  E= 4.613954D-01
              MO Center= -1.1D-03, -6.2D-01,  1.3D-01, r^2= 1.8D+01
   Bfn.  Coefficient  Atom+Function         Bfn.  Coefficient  Atom+Function  
  ----- ------------  ---------------      ----- ------------  ---------------
   190    -15.980271   6 bq s                16    -15.425807   1 bq py        
   535     14.133860  15 bq s               480     11.217548  14 bq s         
   400    -10.794928  12 bq s               638     10.349652  18 bq s         
   508     -9.052550  14 bq dyy             663     -7.792389  19 bq s         
   348     -7.025559  10 bq s               253     -6.747842   7 bq py        
 
 Vector   97  Occ=0.000000D+00  E= 4.659195D-01
              MO Center= -1.9D-01,  2.3D-01, -1.2D-02, r^2= 1.8D+01
   Bfn.  Coefficient  Atom+Function         Bfn.  Coefficient  Atom+Function  
  ----- ------------  ---------------      ----- ------------  ---------------
   480    -28.744454  14 bq s               190     23.372428   6 bq s         
   245     20.878189   7 bq s                16     16.884480   1 bq py        
   535    -16.668156  15 bq s               491     14.725085  14 bq py        
   201     14.576855   6 bq py              373    -14.115520  11 bq s         
   348     13.129465  10 bq s               663      9.658165  19 bq s         
 
 Vector   98  Occ=0.000000D+00  E= 4.755992D-01
              MO Center= -3.4D-01, -6.0D-01,  3.1D-01, r^2= 1.8D+01
   Bfn.  Coefficient  Atom+Function         Bfn.  Coefficient  Atom+Function  
  ----- ------------  ---------------      ----- ------------  ---------------
   190     15.951791   6 bq s               535    -14.659747  15 bq s         
   690     13.323605  20 bq s               480    -11.793141  14 bq s         
   491     11.309468  14 bq py              201     10.795467   6 bq py        
   245     10.093163   7 bq s                15      8.982832   1 bq px        
   400     -8.512192  12 bq s                16     -7.922607   1 bq py        
 
 Vector   99  Occ=0.000000D+00  E= 4.825315D-01
              MO Center=  1.4D-02,  1.8D-01,  5.5D-01, r^2= 2.0D+01
   Bfn.  Coefficient  Atom+Function         Bfn.  Coefficient  Atom+Function  
  ----- ------------  ---------------      ----- ------------  ---------------
   510    -15.418445  14 bq dzz             220     13.877318   6 bq dzz       
   506    -13.567046  14 bq dxy             488     11.925864  14 bq py        
   245    -11.574116   7 bq s               400     11.283728  12 bq s         
   535     10.792118  15 bq s               218     10.106265   6 bq dyy       
    34     -9.441342   1 bq dyz             198      9.429024   6 bq py        
 
 Vector  100  Occ=0.000000D+00  E= 4.853242D-01
              MO Center=  6.1D-02, -1.2D-01,  9.0D-02, r^2= 1.9D+01
   Bfn.  Coefficient  Atom+Function         Bfn.  Coefficient  Atom+Function  
  ----- ------------  ---------------      ----- ------------  ---------------
   690    -19.220564  20 bq s               535     16.119898  15 bq s         
   743     15.255856  21 bq s                16     13.313237   1 bq py        
   453    -10.698922  13 bq s               400     10.103543  12 bq s         
   201     -9.920278   6 bq py              199     -8.245345   6 bq pz        
   491     -8.119623  14 bq py              271     -7.868571   7 bq dxy       
 
 Vector  101  Occ=0.000000D+00  E= 4.882052D-01
              MO Center= -3.8D-02, -4.6D-02,  5.7D-01, r^2= 1.8D+01
   Bfn.  Coefficient  Atom+Function         Bfn.  Coefficient  Atom+Function  
  ----- ------------  ---------------      ----- ------------  ---------------
   245     15.048519   7 bq s               190    -11.904268   6 bq s         
   743    -11.436371  21 bq s               690     10.986152  20 bq s         
   220    -10.739720   6 bq dzz             216      9.730681   6 bq dxy       
   480     -8.981379  14 bq s                15      8.349774   1 bq px        
   400     -8.341381  12 bq s               453      8.261576  13 bq s         
 
 Vector  102  Occ=0.000000D+00  E= 4.939770D-01
              MO Center= -1.7D-01, -7.6D-02,  3.3D-01, r^2= 1.8D+01
   Bfn.  Coefficient  Atom+Function         Bfn.  Coefficient  Atom+Function  
  ----- ------------  ---------------      ----- ------------  ---------------
   190    -22.893526   6 bq s               535     18.277277  15 bq s         
   245     11.861777   7 bq s                16    -10.061280   1 bq py        
   480     -9.012709  14 bq s               690     -8.156895  20 bq s         
   400     -6.924130  12 bq s                 4      6.378139   1 bq s         
   272     -6.370393   7 bq dxz              15      6.157833   1 bq px        
 
 Vector  103  Occ=0.000000D+00  E= 4.994934D-01
              MO Center= -1.5D-01, -2.3D-01,  2.7D-01, r^2= 1.8D+01
   Bfn.  Coefficient  Atom+Function         Bfn.  Coefficient  Atom+Function  
  ----- ------------  ---------------      ----- ------------  ---------------
   199     -7.953673   6 bq pz              220      7.492250   6 bq dzz       
   535      7.087244  15 bq s               506     -6.606651  14 bq dxy       
   480     -6.454002  14 bq s               561     -6.160517  15 bq dxy       
   323     -5.783845   9 bq s               163      5.773887   5 H  s         
   331      5.505707   9 bq px              216     -5.040431   6 bq dxy       
 
 Vector  104  Occ=0.000000D+00  E= 5.026619D-01
              MO Center=  1.0D-01,  3.4D-02,  2.5D-01, r^2= 1.7D+01
   Bfn.  Coefficient  Atom+Function         Bfn.  Coefficient  Atom+Function  
  ----- ------------  ---------------      ----- ------------  ---------------
   535    -13.729479  15 bq s               489     -8.415388  14 bq pz        
   198      7.812357   6 bq py              743     -7.645025  21 bq s         
   510      6.895065  14 bq dzz             480      6.761485  14 bq s         
   508     -6.169798  14 bq dyy             199      6.094666   6 bq pz        
   690      5.970999  20 bq s               110      5.931422   4 N  s         
 

 center of mass
 --------------
 x =  -0.96264216 y =  -0.88167881 z =   0.49886497

 moments of inertia (a.u.)
 ------------------
        1275.932321944588         362.273919707780        -188.867096282218
         362.273919707780         965.795630929715        -146.257713815700
        -188.867096282218        -146.257713815700        1486.377511900486
 
     Multipole analysis of the density
     ---------------------------------
 
     L   x y z        total         alpha         beta         nuclear
     -   - - -        -----         -----         ----         -------
     0   0 0 0      0.000000     -5.000000     -5.000000     10.000000
 
     1   1 0 0     -0.069698     26.340407     26.340407    -52.750512
     1   0 1 0     -0.562690     -9.078065     -9.078065     17.593440
     1   0 0 1     -0.162428      5.602585      5.602585    -11.367597
 
     2   2 0 0     -4.023354   -143.535187   -143.535187    283.047020
     2   1 1 0      2.589773     47.908277     47.908277    -93.226781
     2   1 0 1      0.870086    -29.497367    -29.497367     59.864820
     2   0 2 0     -8.856351    -20.595402    -20.595402     32.334453
     2   0 1 1     -0.241762     10.350746     10.350746    -20.943254
     2   0 0 2     -4.584603    -10.966923    -10.966923     17.349243
 

             BSSE error =       0.000188883361
  Supermolecular energy =    -420.998659359486
       Corrected energy =    -420.998470476126


 Task  times  cpu:    22953.3s     wall:    23004.6s
 
 
                                NWChem Input Module
                                -------------------
 
 
 Summary of allocated global arrays
-----------------------------------
  No active global arrays



                         GA Statistics for process    0
                         ------------------------------

       create   destroy   get      put      acc     scatter   gather  read&inc
calls: 1106     1106     1.11e+06 3.67e+04 7.26e+05    0        0     5.86e+04 
number of processes/call 1.06e+00 1.13e+00 1.00e+00 0.00e+00 0.00e+00
bytes total:             1.59e+10 1.85e+09 9.15e+09 0.00e+00 0.00e+00 4.69e+05
bytes remote:            1.08e+10 8.53e+08 6.43e+09 0.00e+00 0.00e+00 0.00e+00
Max memory consumed for GA by this process: 44935200 bytes
 
MA_summarize_allocated_blocks: starting scan ...
MA_summarize_allocated_blocks: scan completed: 0 heap blocks, 0 stack blocks
MA usage statistics:

	allocation statistics:
					      heap	     stack
					      ----	     -----
	current number of blocks	         0	         0
	maximum number of blocks	        22	        48
	current total bytes		         0	         0
	maximum total bytes		    131224	  56286272
	maximum total K-bytes		       132	     56287
	maximum total M-bytes		         1	        57
 
 
                                     CITATION
                                     --------
                Please cite the following reference when publishing
                           results obtained with NWChem:
 
                 M. Valiev, E.J. Bylaska, N. Govind, K. Kowalski,
              T.P. Straatsma, H.J.J. van Dam, D. Wang, J. Nieplocha,
                        E. Apra, T.L. Windus, W.A. de Jong
                 "NWChem: a comprehensive and scalable open-source
                  solution for large scale molecular simulations"
                      Comput. Phys. Commun. 181, 1477 (2010)
                           doi:10.1016/j.cpc.2010.04.018
 
                              AUTHORS & CONTRIBUTORS
                              ----------------------
      E. J. Bylaska, W. A. de Jong, N. Govind, K. Kowalski, T. P. Straatsma,
     M. Valiev, H. J. J. van Dam, D. Wang, E. Apra, T. L. Windus, J. Hammond,
     J. Autschbach, P. Nichols, S. Hirata, M. T. Hackler, Y. Zhao, P.-D. Fan,
      R. J. Harrison, M. Dupuis, D. M. A. Smith, K. Glaesemann, J. Nieplocha,
      V. Tipparaju, M. Krishnan, A. Vazquez-Mayagoitia, L. Jensen, M. Swart,
      Q. Wu, T. Van Voorhis, A. A. Auer, M. Nooijen, L. D. Crosby, E. Brown,
             G. Cisneros, G. I. Fann, H. Fruchtl, J. Garza, K. Hirao,
        R. Kendall, J. A. Nichols, K. Tsemekhman, K. Wolinski, J. Anchell,
       D. Bernholdt, P. Borowski, T. Clark, D. Clerc, H. Dachsel, M. Deegan,
        K. Dyall, D. Elwood, E. Glendening, M. Gutowski, A. Hess, J. Jaffe,
        B. Johnson, J. Ju, R. Kobayashi, R. Kutteh, Z. Lin, R. Littlefield,
    X. Long, B. Meng, T. Nakajima, S. Niu, L. Pollack, M. Rosing, G. Sandrone,
       M. Stave, H. Taylor, G. Thomas, J. H. van Lenthe, A. Wong, Z. Zhang.

 Total times  cpu:    22953.3s     wall:    23004.7s
