 Entering Gaussian System, Link 0=/pkg/chem/gaussian/g09d01/g09/g09
 Initial command:
 /pkg/chem/gaussian/g09d01/g09/l1.exe "/work/j13jay00/RuRh_CH3_CO2F_model2_PCM_CH3CN_Opt-TD.24255/Gau-2398.inp" -scrdir="/work/j13jay00/RuRh_CH3_CO2F_model2_PCM_CH3CN_Opt-TD.24255/"
 Entering Link 1 = /pkg/chem/gaussian/g09d01/g09/l1.exe PID=      2399.
  
 Copyright (c) 1988,1990,1992,1993,1995,1998,2003,2009,2013,
            Gaussian, Inc.  All Rights Reserved.
  
 This is part of the Gaussian(R) 09 program.  It is based on
 the Gaussian(R) 03 system (copyright 2003, Gaussian, Inc.),
 the Gaussian(R) 98 system (copyright 1998, Gaussian, Inc.),
 the Gaussian(R) 94 system (copyright 1995, Gaussian, Inc.),
 the Gaussian 92(TM) system (copyright 1992, Gaussian, Inc.),
 the Gaussian 90(TM) system (copyright 1990, Gaussian, Inc.),
 the Gaussian 88(TM) system (copyright 1988, Gaussian, Inc.),
 the Gaussian 86(TM) system (copyright 1986, Carnegie Mellon
 University), and the Gaussian 82(TM) system (copyright 1983,
 Carnegie Mellon University). Gaussian is a federally registered
 trademark of Gaussian, Inc.
  
 This software contains proprietary and confidential information,
 including trade secrets, belonging to Gaussian, Inc.
  
 This software is provided under written license and may be
 used, copied, transmitted, or stored only in accord with that
 written license.
  
 The following legend is applicable only to US Government
 contracts under FAR:
  
                    RESTRICTED RIGHTS LEGEND
  
 Use, reproduction and disclosure by the US Government is
 subject to restrictions as set forth in subparagraphs (a)
 and (c) of the Commercial Computer Software - Restricted
 Rights clause in FAR 52.227-19.
  
 Gaussian, Inc.
 340 Quinnipiac St., Bldg. 40, Wallingford CT 06492
  
  
 ---------------------------------------------------------------
 Warning -- This program may not be used in any manner that
 competes with the business of Gaussian, Inc. or will provide
 assistance to any competitor of Gaussian, Inc.  The licensee
 of this program is prohibited from giving any competitor of
 Gaussian, Inc. access to this program.  By using this program,
 the user acknowledges that Gaussian, Inc. is engaged in the
 business of creating and licensing software in the field of
 computational chemistry and represents and warrants to the
 licensee that it is not a competitor of Gaussian, Inc. and that
 it will not use this program in any manner prohibited above.
 ---------------------------------------------------------------
  

 Cite this work as:
 Gaussian 09, Revision D.01,
 M. J. Frisch, G. W. Trucks, H. B. Schlegel, G. E. Scuseria, 
 M. A. Robb, J. R. Cheeseman, G. Scalmani, V. Barone, B. Mennucci, 
 G. A. Petersson, H. Nakatsuji, M. Caricato, X. Li, H. P. Hratchian, 
 A. F. Izmaylov, J. Bloino, G. Zheng, J. L. Sonnenberg, M. Hada, 
 M. Ehara, K. Toyota, R. Fukuda, J. Hasegawa, M. Ishida, T. Nakajima, 
 Y. Honda, O. Kitao, H. Nakai, T. Vreven, J. A. Montgomery, Jr., 
 J. E. Peralta, F. Ogliaro, M. Bearpark, J. J. Heyd, E. Brothers, 
 K. N. Kudin, V. N. Staroverov, T. Keith, R. Kobayashi, J. Normand, 
 K. Raghavachari, A. Rendell, J. C. Burant, S. S. Iyengar, J. Tomasi, 
 M. Cossi, N. Rega, J. M. Millam, M. Klene, J. E. Knox, J. B. Cross, 
 V. Bakken, C. Adamo, J. Jaramillo, R. Gomperts, R. E. Stratmann, 
 O. Yazyev, A. J. Austin, R. Cammi, C. Pomelli, J. W. Ochterski, 
 R. L. Martin, K. Morokuma, V. G. Zakrzewski, G. A. Voth, 
 P. Salvador, J. J. Dannenberg, S. Dapprich, A. D. Daniels, 
 O. Farkas, J. B. Foresman, J. V. Ortiz, J. Cioslowski, 
 and D. J. Fox, Gaussian, Inc., Wallingford CT, 2013.
 
 ******************************************
 Gaussian 09:  AS64L-G09RevD.01 24-Apr-2013
                21-Jan-2014 
 ******************************************
 %chk=RuRh_CH3_CO2F_model2_PCM_CH3CN_Opt-TD
 %mem=24GB
 %nprocshared=24
 Will use up to   24 processors via shared memory.
 ----------------------------------------------------------------------
 #p b3lyp/gen pseudo=read nosymm scf(maxcycle=100,conver=6,xqc) iop(4/5
 =1,9/40=2) EmpiricalDispersion=GD3 scrf(solvent=Acetonitrile) td(nstat
 es=70) geom(allcheck)
 ----------------------------------------------------------------------
 1/29=7,38=1/1;
 2/12=2,15=1,40=1/2;
 3/5=7,11=9,14=-4,16=1,17=8,25=1,30=1,70=2201,72=2,74=-5,124=31/1,2,8,3;
 4/5=1/1;
 5/5=2,6=6,7=100,8=3,13=1,38=5,53=2/2,8;
 8/6=1,10=1,108=70/1;
 9/40=2,41=70,42=1,70=2/14;
 6/7=2,8=2,9=2,10=2/1;
 99/5=1,9=1/99;
 Leave Link    1 at Tue Jan 21 10:06:17 2014, MaxMem=  3221225472 cpu:         2.9
 (Enter /pkg/chem/gaussian/g09d01/g09/l101.exe)
 Structure from the checkpoint file:  "RuRh_CH3_CO2F_model2_PCM_CH3CN_Opt-TD.chk"
 ----------------------------
 RuRh_CH3_CO2F_model2 complex
 ----------------------------
 Charge =  2 Multiplicity = 1
 Redundant internal coordinates found in file.
 Ru,0,0.3453336588,-3.2445042336,-1.9264947873
 N,0,1.2891295224,-2.1756968289,-3.4635959153
 N,0,1.9698316666,-2.3942173864,-0.9173987946
 C,0,0.8718377812,-2.1218905307,-4.7429301788
 C,0,1.5458256442,-1.3965657505,-5.7199889371
 C,0,2.6996627662,-0.6983329899,-5.3599937907
 C,0,3.1371866282,-0.7527762392,-4.0382807855
 C,0,2.4172132048,-1.5010292088,-3.1010853864
 C,0,2.7947765702,-1.6194174659,-1.678556884
 C,0,3.9155022272,-0.9993475131,-1.1167409205
 C,0,4.1918992411,-1.1707377178,0.2380359291
 C,0,3.3384639935,-1.9630980338,1.0074872392
 C,0,2.2405049581,-2.5555771232,0.3920829218
 H,0,-0.031084756,-2.6737707655,-4.9742285237
 H,0,1.1667277227,-1.3843809458,-6.7360253714
 H,0,3.2514392161,-0.1196200308,-6.0936912085
 H,0,4.0300583173,-0.2150286371,-3.7440293831
 H,0,4.5690572113,-0.3882097725,-1.72684337
 H,0,5.0591629384,-0.6930952029,0.6823741321
 H,0,3.5123349445,-2.1253105698,2.065626898
 H,0,1.5531529803,-3.1819455424,0.9476819815
 N,0,-0.8782097753,-1.6845505981,-1.2540652609
 N,0,-0.5639941827,-4.1095581841,-0.2477762354
 C,0,-0.9718668237,-0.469479428,-1.8273804923
 C,0,-1.8111677257,0.5260471765,-1.3377743593
 C,0,-2.5841421245,0.2553285504,-0.2074898459
 C,0,-2.4878377655,-0.9985856557,0.3921563204
 C,0,-1.6247809897,-1.9586885586,-0.1458850409
 C,0,-1.4530109924,-3.3144117715,0.4129746983
 C,0,-2.1318616182,-3.7827384965,1.542636498
 C,0,-1.9004303089,-5.0790651885,1.9979859536
 C,0,-0.9901694458,-5.8846388027,1.3117514041
 C,0,-0.3452219768,-5.3622810641,0.1954051184
 H,0,-0.3563860809,-0.307365809,-2.7038410122
 H,0,-1.8515029395,1.4875764136,-1.8378056447
 H,0,-3.2518065487,1.0060356909,0.2028332615
 H,0,-3.0808538273,-1.2227332848,1.2703864023
 H,0,-2.8346072754,-3.1452670575,2.0647158931
 H,0,-2.422512485,-5.450890219,2.8736964736
 H,0,-0.7769378713,-6.8998684534,1.6281558351
 H,0,0.3738594156,-5.9479847754,-0.3643694184
 N,0,-1.1177896601,-4.1604354388,-3.1256634018
 N,0,1.3632588924,-4.9701656342,-2.5645119932
 C,0,-2.3572340958,-3.7154475883,-3.3755295353
 C,0,-3.2536538588,-4.4186407076,-4.18766295
 C,0,-2.8591659138,-5.6199961299,-4.759731975
 C,0,-1.5641613273,-6.1050899018,-4.5068437015
 C,0,-0.7222279859,-5.3425319987,-3.678791704
 C,0,0.6265820985,-5.779870992,-3.3778893141
 C,0,1.1324265658,-6.9829093957,-3.9003397332
 C,0,2.449211464,-7.3463902882,-3.5684731974
 C,0,3.1928422741,-6.5117417497,-2.7460596597
 C,0,2.6180431901,-5.3314439475,-2.2619083269
 H,0,-2.6306655243,-2.7720415863,-2.9177124707
 H,0,-4.2448656571,-4.0135720796,-4.3594351626
 H,0,-3.5285507366,-6.1885009999,-5.39524351
 H,0,2.8633856602,-8.2693152493,-3.9581066938
 H,0,4.2122242227,-6.7582973347,-2.4699331701
 H,0,3.1684568709,-4.6613268533,-1.6121206524
 C,0,-1.0622612874,-7.36204051,-5.0658836319
 C,0,0.2747382764,-7.8003243651,-4.7608917457
 C,0,-1.3884977424,-9.2363310115,-6.3557677587
 C,0,-0.0436831212,-9.6830259364,-6.0404815363
 N,0,0.7548352562,-8.9376913381,-5.2439263724
 N,0,-1.8599442793,-8.0753708403,-5.8483687611
 C,0,0.4552835217,-10.9061852897,-6.5619370654
 C,0,-2.2303676154,-10.0095919871,-7.1986322102
 C,0,-1.7096754929,-11.1841612405,-7.6863625477
 C,0,-0.3910479639,-11.6268379343,-7.370201288
 C,0,-1.3542969473,-13.1638872379,-8.7259576575
 C,0,0.9963388609,-13.6342136719,-7.9617719172
 H,0,1.8285512308,-13.0676880914,-8.389095775
 H,0,1.2157326572,-13.8820542926,-6.9195548847
 H,0,0.8497378192,-14.552702676,-8.5305899701
 C,0,-3.5998430489,-12.075974397,-9.0739919866
 H,0,-4.3325050101,-12.0758633634,-8.261973351
 H,0,-3.6998828713,-11.1580636185,-9.6599605439
 H,0,-3.7618573326,-12.9409311895,-9.7159430098
 H,0,-3.2321299957,-9.6626067864,-7.4253253968
 H,0,1.4609981992,-11.2274787895,-6.3155440247
 N,0,-2.2508626388,-12.157416094,-8.5195348175
 N,0,-0.2276383979,-12.8401231871,-8.0289470678
 Rh,0,-1.5954507723,-14.8336067718,-9.8288106033
 F,0,-1.6818781257,-16.5902462658,-10.9100200923
 C,0,-2.7607793735,-15.5505474573,-8.4618524769
 C,0,-1.2813365619,-13.8086710099,-11.4401065535
 O,0,-1.2567948086,-13.1676047811,-12.3947514422
 O,0,-3.5749610888,-15.8924482366,-7.7245746532
 Recover connectivity data from disk.
 NAtoms=     88 NQM=       88 NQMF=       0 NMMI=      0 NMMIF=      0
                NMic=       0 NMicF=      0.
                    Isotopes and Nuclear Properties:
 (Nuclear quadrupole moments (NQMom) in fm**2, nuclear magnetic moments (NMagM)
  in nuclear magnetons)

  Atom         1           2           3           4           5           6           7           8           9          10
 IAtWgt=         102          14          14          12          12          12          12          12          12          12
 AtmWgt= 101.9037000  14.0030740  14.0030740  12.0000000  12.0000000  12.0000000  12.0000000  12.0000000  12.0000000  12.0000000
 NucSpn=           0           2           2           0           0           0           0           0           0           0
 AtZEff=-221.7600000  -4.5500000  -4.5500000  -3.6000000  -3.6000000  -3.6000000  -3.6000000  -3.6000000  -3.6000000  -3.6000000
 NQMom=    0.0000000   2.0440000   2.0440000   0.0000000   0.0000000   0.0000000   0.0000000   0.0000000   0.0000000   0.0000000
 NMagM=    0.0000000   0.4037610   0.4037610   0.0000000   0.0000000   0.0000000   0.0000000   0.0000000   0.0000000   0.0000000
 AtZNuc=  44.0000000   7.0000000   7.0000000   6.0000000   6.0000000   6.0000000   6.0000000   6.0000000   6.0000000   6.0000000

  Atom        11          12          13          14          15          16          17          18          19          20
 IAtWgt=          12          12          12           1           1           1           1           1           1           1
 AtmWgt=  12.0000000  12.0000000  12.0000000   1.0078250   1.0078250   1.0078250   1.0078250   1.0078250   1.0078250   1.0078250
 NucSpn=           0           0           0           1           1           1           1           1           1           1
 AtZEff=  -3.6000000  -3.6000000  -3.6000000  -1.0000000  -1.0000000  -1.0000000  -1.0000000  -1.0000000  -1.0000000  -1.0000000
 NQMom=    0.0000000   0.0000000   0.0000000   0.0000000   0.0000000   0.0000000   0.0000000   0.0000000   0.0000000   0.0000000
 NMagM=    0.0000000   0.0000000   0.0000000   2.7928460   2.7928460   2.7928460   2.7928460   2.7928460   2.7928460   2.7928460
 AtZNuc=   6.0000000   6.0000000   6.0000000   1.0000000   1.0000000   1.0000000   1.0000000   1.0000000   1.0000000   1.0000000

  Atom        21          22          23          24          25          26          27          28          29          30
 IAtWgt=           1          14          14          12          12          12          12          12          12          12
 AtmWgt=   1.0078250  14.0030740  14.0030740  12.0000000  12.0000000  12.0000000  12.0000000  12.0000000  12.0000000  12.0000000
 NucSpn=           1           2           2           0           0           0           0           0           0           0
 AtZEff=  -1.0000000  -4.5500000  -4.5500000  -3.6000000  -3.6000000  -3.6000000  -3.6000000  -3.6000000  -3.6000000  -3.6000000
 NQMom=    0.0000000   2.0440000   2.0440000   0.0000000   0.0000000   0.0000000   0.0000000   0.0000000   0.0000000   0.0000000
 NMagM=    2.7928460   0.4037610   0.4037610   0.0000000   0.0000000   0.0000000   0.0000000   0.0000000   0.0000000   0.0000000
 AtZNuc=   1.0000000   7.0000000   7.0000000   6.0000000   6.0000000   6.0000000   6.0000000   6.0000000   6.0000000   6.0000000

  Atom        31          32          33          34          35          36          37          38          39          40
 IAtWgt=          12          12          12           1           1           1           1           1           1           1
 AtmWgt=  12.0000000  12.0000000  12.0000000   1.0078250   1.0078250   1.0078250   1.0078250   1.0078250   1.0078250   1.0078250
 NucSpn=           0           0           0           1           1           1           1           1           1           1
 AtZEff=  -3.6000000  -3.6000000  -3.6000000  -1.0000000  -1.0000000  -1.0000000  -1.0000000  -1.0000000  -1.0000000  -1.0000000
 NQMom=    0.0000000   0.0000000   0.0000000   0.0000000   0.0000000   0.0000000   0.0000000   0.0000000   0.0000000   0.0000000
 NMagM=    0.0000000   0.0000000   0.0000000   2.7928460   2.7928460   2.7928460   2.7928460   2.7928460   2.7928460   2.7928460
 AtZNuc=   6.0000000   6.0000000   6.0000000   1.0000000   1.0000000   1.0000000   1.0000000   1.0000000   1.0000000   1.0000000

  Atom        41          42          43          44          45          46          47          48          49          50
 IAtWgt=           1          14          14          12          12          12          12          12          12          12
 AtmWgt=   1.0078250  14.0030740  14.0030740  12.0000000  12.0000000  12.0000000  12.0000000  12.0000000  12.0000000  12.0000000
 NucSpn=           1           2           2           0           0           0           0           0           0           0
 AtZEff=  -1.0000000  -4.5500000  -4.5500000  -3.6000000  -3.6000000  -3.6000000  -3.6000000  -3.6000000  -3.6000000  -3.6000000
 NQMom=    0.0000000   2.0440000   2.0440000   0.0000000   0.0000000   0.0000000   0.0000000   0.0000000   0.0000000   0.0000000
 NMagM=    2.7928460   0.4037610   0.4037610   0.0000000   0.0000000   0.0000000   0.0000000   0.0000000   0.0000000   0.0000000
 AtZNuc=   1.0000000   7.0000000   7.0000000   6.0000000   6.0000000   6.0000000   6.0000000   6.0000000   6.0000000   6.0000000

  Atom        51          52          53          54          55          56          57          58          59          60
 IAtWgt=          12          12          12           1           1           1           1           1           1          12
 AtmWgt=  12.0000000  12.0000000  12.0000000   1.0078250   1.0078250   1.0078250   1.0078250   1.0078250   1.0078250  12.0000000
 NucSpn=           0           0           0           1           1           1           1           1           1           0
 AtZEff=  -3.6000000  -3.6000000  -3.6000000  -1.0000000  -1.0000000  -1.0000000  -1.0000000  -1.0000000  -1.0000000  -3.6000000
 NQMom=    0.0000000   0.0000000   0.0000000   0.0000000   0.0000000   0.0000000   0.0000000   0.0000000   0.0000000   0.0000000
 NMagM=    0.0000000   0.0000000   0.0000000   2.7928460   2.7928460   2.7928460   2.7928460   2.7928460   2.7928460   0.0000000
 AtZNuc=   6.0000000   6.0000000   6.0000000   1.0000000   1.0000000   1.0000000   1.0000000   1.0000000   1.0000000   6.0000000

  Atom        61          62          63          64          65          66          67          68          69          70
 IAtWgt=          12          12          12          14          14          12          12          12          12          12
 AtmWgt=  12.0000000  12.0000000  12.0000000  14.0030740  14.0030740  12.0000000  12.0000000  12.0000000  12.0000000  12.0000000
 NucSpn=           0           0           0           2           2           0           0           0           0           0
 AtZEff=  -3.6000000  -3.6000000  -3.6000000  -4.5500000  -4.5500000  -3.6000000  -3.6000000  -3.6000000  -3.6000000  -3.6000000
 NQMom=    0.0000000   0.0000000   0.0000000   2.0440000   2.0440000   0.0000000   0.0000000   0.0000000   0.0000000   0.0000000
 NMagM=    0.0000000   0.0000000   0.0000000   0.4037610   0.4037610   0.0000000   0.0000000   0.0000000   0.0000000   0.0000000
 AtZNuc=   6.0000000   6.0000000   6.0000000   7.0000000   7.0000000   6.0000000   6.0000000   6.0000000   6.0000000   6.0000000

  Atom        71          72          73          74          75          76          77          78          79          80
 IAtWgt=          12           1           1           1          12           1           1           1           1           1
 AtmWgt=  12.0000000   1.0078250   1.0078250   1.0078250  12.0000000   1.0078250   1.0078250   1.0078250   1.0078250   1.0078250
 NucSpn=           0           1           1           1           0           1           1           1           1           1
 AtZEff=  -3.6000000  -1.0000000  -1.0000000  -1.0000000  -3.6000000  -1.0000000  -1.0000000  -1.0000000  -1.0000000  -1.0000000
 NQMom=    0.0000000   0.0000000   0.0000000   0.0000000   0.0000000   0.0000000   0.0000000   0.0000000   0.0000000   0.0000000
 NMagM=    0.0000000   2.7928460   2.7928460   2.7928460   0.0000000   2.7928460   2.7928460   2.7928460   2.7928460   2.7928460
 AtZNuc=   6.0000000   1.0000000   1.0000000   1.0000000   6.0000000   1.0000000   1.0000000   1.0000000   1.0000000   1.0000000

  Atom        81          82          83          84          85          86          87          88
 IAtWgt=          14          14         103          19          12          12          16          16
 AtmWgt=  14.0030740  14.0030740 102.9048000  18.9984033  12.0000000  12.0000000  15.9949146  15.9949146
 NucSpn=           2           2           1           1           0           0           0           0
 AtZEff=  -4.5500000  -4.5500000-229.5000000  -6.7500000  -3.6000000  -3.6000000  -5.6000000  -5.6000000
 NQMom=    2.0440000   2.0440000   0.0000000   0.0000000   0.0000000   0.0000000   0.0000000   0.0000000
 NMagM=    0.4037610   0.4037610  -0.0884000   2.6288670   0.0000000   0.0000000   0.0000000   0.0000000
 AtZNuc=   7.0000000   7.0000000  45.0000000   9.0000000   6.0000000   6.0000000   8.0000000   8.0000000
 Leave Link  101 at Tue Jan 21 10:06:18 2014, MaxMem=  3221225472 cpu:        21.5
 (Enter /pkg/chem/gaussian/g09d01/g09/l202.exe)
 Symmetry turned off by external request.
 Stoichiometry    C43H30FN10O2RhRu(2+)
 Framework group  C1[X(C43H30FN10O2RhRu)]
 Deg. of freedom   258
 Full point group                 C1      NOp   1
                          Input orientation:                          
 ---------------------------------------------------------------------
 Center     Atomic      Atomic             Coordinates (Angstroms)
 Number     Number       Type             X           Y           Z
 ---------------------------------------------------------------------
      1         44           0        0.345334   -3.244504   -1.926495
      2          7           0        1.289130   -2.175697   -3.463596
      3          7           0        1.969832   -2.394217   -0.917399
      4          6           0        0.871838   -2.121891   -4.742930
      5          6           0        1.545826   -1.396566   -5.719989
      6          6           0        2.699663   -0.698333   -5.359994
      7          6           0        3.137187   -0.752776   -4.038281
      8          6           0        2.417213   -1.501029   -3.101085
      9          6           0        2.794777   -1.619417   -1.678557
     10          6           0        3.915502   -0.999348   -1.116741
     11          6           0        4.191899   -1.170738    0.238036
     12          6           0        3.338464   -1.963098    1.007487
     13          6           0        2.240505   -2.555577    0.392083
     14          1           0       -0.031085   -2.673771   -4.974229
     15          1           0        1.166728   -1.384381   -6.736025
     16          1           0        3.251439   -0.119620   -6.093691
     17          1           0        4.030058   -0.215029   -3.744029
     18          1           0        4.569057   -0.388210   -1.726843
     19          1           0        5.059163   -0.693095    0.682374
     20          1           0        3.512335   -2.125311    2.065627
     21          1           0        1.553153   -3.181946    0.947682
     22          7           0       -0.878210   -1.684551   -1.254065
     23          7           0       -0.563994   -4.109558   -0.247776
     24          6           0       -0.971867   -0.469479   -1.827380
     25          6           0       -1.811168    0.526047   -1.337774
     26          6           0       -2.584142    0.255329   -0.207490
     27          6           0       -2.487838   -0.998586    0.392156
     28          6           0       -1.624781   -1.958689   -0.145885
     29          6           0       -1.453011   -3.314412    0.412975
     30          6           0       -2.131862   -3.782738    1.542636
     31          6           0       -1.900430   -5.079065    1.997986
     32          6           0       -0.990169   -5.884639    1.311751
     33          6           0       -0.345222   -5.362281    0.195405
     34          1           0       -0.356386   -0.307366   -2.703841
     35          1           0       -1.851503    1.487576   -1.837806
     36          1           0       -3.251807    1.006036    0.202833
     37          1           0       -3.080854   -1.222733    1.270386
     38          1           0       -2.834607   -3.145267    2.064716
     39          1           0       -2.422512   -5.450890    2.873696
     40          1           0       -0.776938   -6.899868    1.628156
     41          1           0        0.373859   -5.947985   -0.364369
     42          7           0       -1.117790   -4.160435   -3.125663
     43          7           0        1.363259   -4.970166   -2.564512
     44          6           0       -2.357234   -3.715448   -3.375530
     45          6           0       -3.253654   -4.418641   -4.187663
     46          6           0       -2.859166   -5.619996   -4.759732
     47          6           0       -1.564161   -6.105090   -4.506844
     48          6           0       -0.722228   -5.342532   -3.678792
     49          6           0        0.626582   -5.779871   -3.377889
     50          6           0        1.132427   -6.982909   -3.900340
     51          6           0        2.449211   -7.346390   -3.568473
     52          6           0        3.192842   -6.511742   -2.746060
     53          6           0        2.618043   -5.331444   -2.261908
     54          1           0       -2.630666   -2.772042   -2.917712
     55          1           0       -4.244866   -4.013572   -4.359435
     56          1           0       -3.528551   -6.188501   -5.395244
     57          1           0        2.863386   -8.269315   -3.958107
     58          1           0        4.212224   -6.758297   -2.469933
     59          1           0        3.168457   -4.661327   -1.612121
     60          6           0       -1.062261   -7.362041   -5.065884
     61          6           0        0.274738   -7.800324   -4.760892
     62          6           0       -1.388498   -9.236331   -6.355768
     63          6           0       -0.043683   -9.683026   -6.040482
     64          7           0        0.754835   -8.937691   -5.243926
     65          7           0       -1.859944   -8.075371   -5.848369
     66          6           0        0.455284  -10.906185   -6.561937
     67          6           0       -2.230368  -10.009592   -7.198632
     68          6           0       -1.709675  -11.184161   -7.686363
     69          6           0       -0.391048  -11.626838   -7.370201
     70          6           0       -1.354297  -13.163887   -8.725958
     71          6           0        0.996339  -13.634214   -7.961772
     72          1           0        1.828551  -13.067688   -8.389096
     73          1           0        1.215733  -13.882054   -6.919555
     74          1           0        0.849738  -14.552703   -8.530590
     75          6           0       -3.599843  -12.075974   -9.073992
     76          1           0       -4.332505  -12.075863   -8.261973
     77          1           0       -3.699883  -11.158064   -9.659961
     78          1           0       -3.761857  -12.940931   -9.715943
     79          1           0       -3.232130   -9.662607   -7.425325
     80          1           0        1.460998  -11.227479   -6.315544
     81          7           0       -2.250863  -12.157416   -8.519535
     82          7           0       -0.227638  -12.840123   -8.028947
     83         45           0       -1.595451  -14.833607   -9.828811
     84          9           0       -1.681878  -16.590246  -10.910020
     85          6           0       -2.760779  -15.550547   -8.461852
     86          6           0       -1.281337  -13.808671  -11.440107
     87          8           0       -1.256795  -13.167605  -12.394751
     88          8           0       -3.574961  -15.892448   -7.724575
 ---------------------------------------------------------------------
 Rotational constants (GHZ):      0.1016115      0.0130842      0.0127982
 Leave Link  202 at Tue Jan 21 10:06:18 2014, MaxMem=  3221225472 cpu:         0.1
 (Enter /pkg/chem/gaussian/g09d01/g09/l301.exe)
 General basis read from cards:  (5D, 7F)
 Centers:      14     15     16     17     18     19     20     21     34     35
 Centers:      36     37     38     39     40     41     54     55     56     57
 Centers:      58     59     72     73     74     76     77     78     79     80
 Centers:       4      5      6      7      8      9     10     11     12     13
 Centers:      24     25     26     27     28     29     30     31     32     33
 Centers:      44     45     46     47     48     49     50     51     52     53
 Centers:      60     61     62     63     66     67     68     69     70     71
 Centers:      75     85     86      2      3     22     23     42     43     64
 Centers:      65     81     82     87     88     84
 6-31+(d)
 ****
 Centers:       1
 S 1 1.00
     Exponent=  2.5650000000D+00 Coefficients=  1.0000000000D+00
 S 1 1.00
     Exponent=  1.5080000000D+00 Coefficients=  1.0000000000D+00
 S 1 1.00
     Exponent=  5.1290000000D-01 Coefficients=  1.0000000000D+00
 S 1 1.00
     Exponent=  1.3620000000D-01 Coefficients=  1.0000000000D+00
 S 1 1.00
     Exponent=  4.1700000000D-02 Coefficients=  1.0000000000D+00
 P 1 1.00
     Exponent=  4.8590000000D+00 Coefficients=  1.0000000000D+00
 P 1 1.00
     Exponent=  1.2190000000D+00 Coefficients=  1.0000000000D+00
 P 1 1.00
     Exponent=  4.4130000000D-01 Coefficients=  1.0000000000D+00
 P 1 1.00
     Exponent=  8.3000000000D-02 Coefficients=  1.0000000000D+00
 P 1 1.00
     Exponent=  2.5000000000D-02 Coefficients=  1.0000000000D+00
 D 1 1.00
     Exponent=  4.1950000000D+00 Coefficients=  1.0000000000D+00
 D 1 1.00
     Exponent=  1.3770000000D+00 Coefficients=  1.0000000000D+00
 D 1 1.00
     Exponent=  4.8280000000D-01 Coefficients=  1.0000000000D+00
 D 1 1.00
     Exponent=  1.5010000000D-01 Coefficients=  1.0000000000D+00
 ****
 Centers:      83
 S 1 1.00
     Exponent=  2.6460000000D+00 Coefficients=  1.0000000000D+00
 S 1 1.00
     Exponent=  1.7510000000D+00 Coefficients=  1.0000000000D+00
 S 1 1.00
     Exponent=  5.7130000000D-01 Coefficients=  1.0000000000D+00
 S 1 1.00
     Exponent=  1.4380000000D-01 Coefficients=  1.0000000000D+00
 S 1 1.00
     Exponent=  4.2800000000D-02 Coefficients=  1.0000000000D+00
 P 1 1.00
     Exponent=  5.4400000000D+00 Coefficients=  1.0000000000D+00
 P 1 1.00
     Exponent=  1.3290000000D+00 Coefficients=  1.0000000000D+00
 P 1 1.00
     Exponent=  4.8450000000D-01 Coefficients=  1.0000000000D+00
 P 1 1.00
     Exponent=  8.6900000000D-02 Coefficients=  1.0000000000D+00
 P 1 1.00
     Exponent=  2.5700000000D-02 Coefficients=  1.0000000000D+00
 D 1 1.00
     Exponent=  3.6690000000D+00 Coefficients=  1.0000000000D+00
 D 1 1.00
     Exponent=  1.4230000000D+00 Coefficients=  1.0000000000D+00
 D 1 1.00
     Exponent=  5.0910000000D-01 Coefficients=  1.0000000000D+00
 D 1 1.00
     Exponent=  1.6100000000D-01 Coefficients=  1.0000000000D+00
 ****
 ======================================================================================================
                                       Pseudopotential Parameters
 ======================================================================================================
  Center     Atomic      Valence      Angular      Power
  Number     Number     Electrons     Momentum     of R      Exponent        Coefficient   SO-Coeffient
 ======================================================================================================
    1         44           16
                                      F and up 
                                                     0      554.3796303       -0.05152700    0.00000000
                                                     1      155.1066871      -20.18165360    0.00000000
                                                     2       48.4976263     -105.99669150    0.00000000
                                                     2       14.7701594      -42.21667880    0.00000000
                                                     2        5.2077363       -3.76750240    0.00000000
                                      S - F
                                                     0       66.7118060        2.95783440    0.00000000
                                                     1       77.3503632       25.37487070    0.00000000
                                                     2       18.3571445      536.12623720    0.00000000
                                                     2       11.8404727     -651.20572210    0.00000000
                                                     2        8.1179479      381.38169430    0.00000000
                                      P - F
                                                     0       54.9937915        4.96515570    0.00000000
                                                     1       13.9399212       23.88615010    0.00000000
                                                     2       15.2118246      464.46313440    0.00000000
                                                     2       10.5460691     -714.44517880    0.00000000
                                                     2        7.5539486      377.55035940    0.00000000
                                      D - F
                                                     0       60.3444595        3.03529880    0.00000000
                                                     1       45.2100305       23.29017230    0.00000000
                                                     2       19.1190074      146.09266200    0.00000000
                                                     2        4.2712090       28.91297700    0.00000000
    2          7
                                   No pseudopotential on this center.
    3          7
                                   No pseudopotential on this center.
    4          6
                                   No pseudopotential on this center.
    5          6
                                   No pseudopotential on this center.
    6          6
                                   No pseudopotential on this center.
    7          6
                                   No pseudopotential on this center.
    8          6
                                   No pseudopotential on this center.
    9          6
                                   No pseudopotential on this center.
   10          6
                                   No pseudopotential on this center.
   11          6
                                   No pseudopotential on this center.
   12          6
                                   No pseudopotential on this center.
   13          6
                                   No pseudopotential on this center.
   14          1
                                   No pseudopotential on this center.
   15          1
                                   No pseudopotential on this center.
   16          1
                                   No pseudopotential on this center.
   17          1
                                   No pseudopotential on this center.
   18          1
                                   No pseudopotential on this center.
   19          1
                                   No pseudopotential on this center.
   20          1
                                   No pseudopotential on this center.
   21          1
                                   No pseudopotential on this center.
   22          7
                                   No pseudopotential on this center.
   23          7
                                   No pseudopotential on this center.
   24          6
                                   No pseudopotential on this center.
   25          6
                                   No pseudopotential on this center.
   26          6
                                   No pseudopotential on this center.
   27          6
                                   No pseudopotential on this center.
   28          6
                                   No pseudopotential on this center.
   29          6
                                   No pseudopotential on this center.
   30          6
                                   No pseudopotential on this center.
   31          6
                                   No pseudopotential on this center.
   32          6
                                   No pseudopotential on this center.
   33          6
                                   No pseudopotential on this center.
   34          1
                                   No pseudopotential on this center.
   35          1
                                   No pseudopotential on this center.
   36          1
                                   No pseudopotential on this center.
   37          1
                                   No pseudopotential on this center.
   38          1
                                   No pseudopotential on this center.
   39          1
                                   No pseudopotential on this center.
   40          1
                                   No pseudopotential on this center.
   41          1
                                   No pseudopotential on this center.
   42          7
                                   No pseudopotential on this center.
   43          7
                                   No pseudopotential on this center.
   44          6
                                   No pseudopotential on this center.
   45          6
                                   No pseudopotential on this center.
   46          6
                                   No pseudopotential on this center.
   47          6
                                   No pseudopotential on this center.
   48          6
                                   No pseudopotential on this center.
   49          6
                                   No pseudopotential on this center.
   50          6
                                   No pseudopotential on this center.
   51          6
                                   No pseudopotential on this center.
   52          6
                                   No pseudopotential on this center.
   53          6
                                   No pseudopotential on this center.
   54          1
                                   No pseudopotential on this center.
   55          1
                                   No pseudopotential on this center.
   56          1
                                   No pseudopotential on this center.
   57          1
                                   No pseudopotential on this center.
   58          1
                                   No pseudopotential on this center.
   59          1
                                   No pseudopotential on this center.
   60          6
                                   No pseudopotential on this center.
   61          6
                                   No pseudopotential on this center.
   62          6
                                   No pseudopotential on this center.
   63          6
                                   No pseudopotential on this center.
   64          7
                                   No pseudopotential on this center.
   65          7
                                   No pseudopotential on this center.
   66          6
                                   No pseudopotential on this center.
   67          6
                                   No pseudopotential on this center.
   68          6
                                   No pseudopotential on this center.
   69          6
                                   No pseudopotential on this center.
   70          6
                                   No pseudopotential on this center.
   71          6
                                   No pseudopotential on this center.
   72          1
                                   No pseudopotential on this center.
   73          1
                                   No pseudopotential on this center.
   74          1
                                   No pseudopotential on this center.
   75          6
                                   No pseudopotential on this center.
   76          1
                                   No pseudopotential on this center.
   77          1
                                   No pseudopotential on this center.
   78          1
                                   No pseudopotential on this center.
   79          1
                                   No pseudopotential on this center.
   80          1
                                   No pseudopotential on this center.
   81          7
                                   No pseudopotential on this center.
   82          7
                                   No pseudopotential on this center.
   83         45           17
                                      F and up 
                                                     0      600.3243032       -0.05389580    0.00000000
                                                     1      157.6910176      -20.13162820    0.00000000
                                                     2       49.8841995     -105.36541210    0.00000000
                                                     2       15.5966895      -42.32743700    0.00000000
                                                     2        5.5099296       -3.66540430    0.00000000
                                      S - F
                                                     0       59.3442526        2.97537280    0.00000000
                                                     1       83.7426061       25.12303060    0.00000000
                                                     2       18.4530248      626.09261450    0.00000000
                                                     2       12.4194606     -812.25493850    0.00000000
                                                     2        8.8172913      467.37293400    0.00000000
                                      P - F
                                                     0       53.4309068        4.95372130    0.00000000
                                                     1       65.6671843       20.48711160    0.00000000
                                                     2       16.8369862      598.01201390    0.00000000
                                                     2       11.3042136     -718.40590280    0.00000000
                                                     2        8.0312444      382.81731510    0.00000000
                                      D - F
                                                     0       64.3993653        3.02795320    0.00000000
                                                     1       43.4625053       24.75265160    0.00000000
                                                     2       19.4020301      142.68442890    0.00000000
                                                     2        4.6879328       32.14068570    0.00000000
   84          9
                                   No pseudopotential on this center.
   85          6
                                   No pseudopotential on this center.
   86          6
                                   No pseudopotential on this center.
   87          8
                                   No pseudopotential on this center.
   88          8
                                   No pseudopotential on this center.
 ======================================================================================================
 Ernie: Thresh=  0.10000D-02 Tol=  0.10000D-05 Strict=F.
  1148 basis functions,  2000 primitive gaussians,  1212 cartesian basis functions
   207 alpha electrons      207 beta electrons
       nuclear repulsion energy      8207.0185716063 Hartrees.
 IExCor=  402 DFT=T Ex+Corr=B3LYP ExCW=0 ScaHFX=  0.200000
 ScaDFX=  0.800000  0.720000  1.000000  0.810000 ScalE2=  1.000000  1.000000
 IRadAn=      0 IRanWt=     -1 IRanGd=            0 ICorTp=0 IEmpDi=131
 NAtoms=   88 NActive=   88 NUniq=   88 SFac= 1.00D+00 NAtFMM=   60 NAOKFM=T Big=T
 Integral buffers will be    131072 words long.
 Regular integral format.
 Two-electron integral symmetry is turned off.
 R6Disp:  Grimme-D3 Dispersion energy=       -0.1221682758 Hartrees.
 Nuclear repulsion after empirical dispersion term =     8206.8964033306 Hartrees.
 ------------------------------------------------------------------------------
 Polarizable Continuum Model (PCM)
 =================================
 Model                : PCM (using non-symmetric T matrix).
 Atomic radii         : UFF (Universal Force Field).
 Polarization charges : Total charges.
 Charge compensation  : None.
 Solution method      : On-the-fly selection.
 Cavity type          : Scaled VdW (van der Waals Surface) (Alpha=1.100).
 Cavity algorithm     : GePol (No added spheres)
                        Default sphere list used, NSphG=   88.
                        Lebedev-Laikov grids with approx.  5.0 points / Ang**2.
                        Smoothing algorithm: Karplus/York (Gamma=1.0000).
                        Polarization charges: spherical gaussians, with
                                              point-specific exponents (IZeta= 3).
                        Self-potential: point-specific (ISelfS= 7).
                        Self-field    : sphere-specific E.n sum rule (ISelfD= 2).
 Solvent              : Acetonitrile, Eps=  35.688000 Eps(inf)=   1.806874
 ------------------------------------------------------------------------------
 GePol: Number of generator spheres                  =      88
 GePol: Total number of spheres                      =      88
 GePol: Number of exposed spheres                    =      87 ( 98.86%)
 GePol: Number of points                             =    6305
 GePol: Average weight of points                     =       0.13
 GePol: Minimum weight of points                     =   0.11D-09
 GePol: Maximum weight of points                     =    0.20604
 GePol: Number of points with low weight             =     404
 GePol: Fraction of low-weight points (<1% of avg)   =       6.41%
 GePol: Cavity surface area                          =    813.585 Ang**2
 GePol: Cavity volume                                =    980.193 Ang**3
 Leave Link  301 at Tue Jan 21 10:06:18 2014, MaxMem=  3221225472 cpu:        10.3
 (Enter /pkg/chem/gaussian/g09d01/g09/l302.exe)
 NPDir=0 NMtPBC=     1 NCelOv=     1 NCel=       1 NClECP=     1 NCelD=      1
         NCelK=      1 NCelE2=     1 NClLst=     1 CellRange=     0.0.
 One-electron integrals computed using PRISM.
   1 Symmetry operations used in ECPInt.
 ECPInt:  NShTT=   67896 NPrTT=  337708 LenC2=   48115 LenP2D=  132476.
 LDataN:  DoStor=T MaxTD1= 5 Len=  102
 NBasis=  1148 RedAO= T EigKep=  1.12D-06  NBF=  1148
 NBsUse=  1130 1.00D-06 EigRej=  8.78D-07 NBFU=  1130
 Precomputing XC quadrature grid using
 IXCGrd= 4 IRadAn=           0 IRanWt=          -1 IRanGd=           0 AccXCQ= 0.00D+00.
 Defaulting to unpruned grid for atomic number  44.
 Defaulting to unpruned grid for atomic number  45.
 Generated NRdTot=       0 NPtTot=           0 NUsed=           0 NTot=          32
 NSgBfM=  1083  1083  1083  1087  1089 MxSgAt=    88 MxSgA2=    88.
 Leave Link  302 at Tue Jan 21 10:06:27 2014, MaxMem=  3221225472 cpu:       217.1
 (Enter /pkg/chem/gaussian/g09d01/g09/l308.exe)
 Leave Link  308 at Tue Jan 21 10:06:29 2014, MaxMem=  3221225472 cpu:        23.2
 (Enter /pkg/chem/gaussian/g09d01/g09/l303.exe)
 DipDrv:  MaxL=1.
 Leave Link  303 at Tue Jan 21 10:06:29 2014, MaxMem=  3221225472 cpu:        18.1
 (Enter /pkg/chem/gaussian/g09d01/g09/l401.exe)
 Initial guess from the checkpoint file:  "RuRh_CH3_CO2F_model2_PCM_CH3CN_Opt-TD.chk"
 B after Tr=     0.000000    0.000000    0.000000
         Rot=    1.000000    0.000000    0.000000    0.000000 Ang=   0.00 deg.
 Guess basis will be translated and rotated to current coordinates.
 JPrj=2 DoOrth=T DoCkMO=T.
 Leave Link  401 at Tue Jan 21 10:06:52 2014, MaxMem=  3221225472 cpu:       540.1
 (Enter /pkg/chem/gaussian/g09d01/g09/l502.exe)
 Closed shell SCF:
 Using DIIS extrapolation, IDIIS=  1040.
 Two-electron integral symmetry not used.
 IVT=     4455394 IEndB=     4455394 NGot=  3221225472 MDV=  3218250435
 LenX=  3218250435 LenY=  3216780279
 Requested convergence on RMS density matrix=1.00D-06 within 100 cycles.
 Requested convergence on MAX density matrix=1.00D-04.
 Requested convergence on             energy=1.00D-04.
 No special actions if energy rises.
 Fock matrices will be formed incrementally for  20 cycles.

 Cycle   1  Pass 1  IDiag  1:
 FoFJK:  IHMeth= 1 ICntrl=       0 DoSepK=F KAlg= 0 I1Cent=   0 FoldK=F
 IRaf= 770000000 NMat=   1 IRICut=       1 DoRegI=T DoRafI=F ISym2E= 0.
 FoFCou: FMM=T IPFlag=           0 FMFlag=      100000 FMFlg1=        2001
         NFxFlg=           0 DoJE=F BraDBF=F KetDBF=F FulRan=T
         wScrn=  0.000000 ICntrl=       0 IOpCl=  0 I1Cent=           0 NGrid=           0
         NMat0=    1 NMatS0=      1 NMatT0=    0 NMatD0=    1 NMtDS0=    0 NMtDT0=    0
 Symmetry not used in FoFCou.
 FMM levels:  10  Number of levels for PrismC:   9
 Defaulting to unpruned grid for atomic number  44.
 Defaulting to unpruned grid for atomic number  44.
 Defaulting to unpruned grid for atomic number  44.
 Defaulting to unpruned grid for atomic number  44.
 Defaulting to unpruned grid for atomic number  44.
 Defaulting to unpruned grid for atomic number  44.
 Defaulting to unpruned grid for atomic number  44.
 Defaulting to unpruned grid for atomic number  44.
 Defaulting to unpruned grid for atomic number  44.
 Defaulting to unpruned grid for atomic number  44.
 Defaulting to unpruned grid for atomic number  44.
 Defaulting to unpruned grid for atomic number  44.
 Defaulting to unpruned grid for atomic number  44.
 Defaulting to unpruned grid for atomic number  44.
 Defaulting to unpruned grid for atomic number  44.
 Defaulting to unpruned grid for atomic number  44.
 Defaulting to unpruned grid for atomic number  44.
 Defaulting to unpruned grid for atomic number  44.
 Defaulting to unpruned grid for atomic number  44.
 Defaulting to unpruned grid for atomic number  44.
 Defaulting to unpruned grid for atomic number  44.
 Defaulting to unpruned grid for atomic number  44.
 Defaulting to unpruned grid for atomic number  44.
 Defaulting to unpruned grid for atomic number  44.
 Inv3:  Mode=1 IEnd=   119259075.
 Iteration    1 A*A^-1 deviation from unit magnitude is 7.33D-15 for   6291.
 Iteration    1 A*A^-1 deviation from orthogonality  is 5.12D-15 for   6304   5386.
 Iteration    1 A^-1*A deviation from unit magnitude is 7.55D-15 for   6291.
 Iteration    1 A^-1*A deviation from orthogonality  is 3.25D-10 for   4568   4538.
 Iteration    2 A*A^-1 deviation from unit magnitude is 4.22D-15 for    359.
 Iteration    2 A*A^-1 deviation from orthogonality  is 5.86D-15 for   6283   1830.
 Iteration    2 A^-1*A deviation from unit magnitude is 1.33D-15 for   1810.
 Iteration    2 A^-1*A deviation from orthogonality  is 7.12D-16 for   6294    911.
 E= -2658.04853454090    
 DIIS: error= 3.41D-03 at cycle   1 NSaved=   1.
 NSaved= 1 IEnMin= 1 EnMin= -2658.04853454090     IErMin= 1 ErrMin= 3.41D-03
 ErrMax= 3.41D-03  0.00D+00 EMaxC= 1.00D-01 BMatC= 9.05D-04 BMatP= 9.05D-04
 IDIUse=3 WtCom= 9.66D-01 WtEn= 3.41D-02
 Coeff-Com:  0.100D+01
 Coeff-En:   0.100D+01
 Coeff:      0.100D+01
 Gap=     0.109 Goal=   None    Shift=    0.000
 GapD=    0.109 DampG=1.000 DampE=1.000 DampFc=1.0000 IDamp=-1.
 RMSDP=5.27D-02 MaxDP=3.35D+01              OVMax= 1.57D-03

 Cycle   2  Pass 1  IDiag  1:
 RMSU=  5.27D-02    CP:  9.83D-01
 E= -2658.04894367194     Delta-E=       -0.000409131033 Rises=F Damp=F
 DIIS: error= 3.09D-05 at cycle   2 NSaved=   2.
 NSaved= 2 IEnMin= 2 EnMin= -2658.04894367194     IErMin= 2 ErrMin= 3.09D-05
 ErrMax= 3.09D-05  0.00D+00 EMaxC= 1.00D-01 BMatC= 8.59D-08 BMatP= 9.05D-04
 IDIUse=1 WtCom= 1.00D+00 WtEn= 0.00D+00
 Coeff-Com: -0.443D-02 0.100D+01
 Coeff:     -0.443D-02 0.100D+01
 Gap=     0.109 Goal=   None    Shift=    0.000
 RMSDP=2.07D-03 MaxDP=1.36D+00 DE=-4.09D-04 OVMax= 1.97D-04

 Cycle   3  Pass 1  IDiag  1:
 RMSU=  4.25D-04    CP:  9.84D-01  1.04D+00
 E= -2658.04894369648     Delta-E=       -0.000000024547 Rises=F Damp=F
 DIIS: error= 1.55D-05 at cycle   3 NSaved=   3.
 NSaved= 3 IEnMin= 3 EnMin= -2658.04894369648     IErMin= 3 ErrMin= 1.55D-05
 ErrMax= 1.55D-05  0.00D+00 EMaxC= 1.00D-01 BMatC= 1.61D-07 BMatP= 8.59D-08
 IDIUse=1 WtCom= 1.00D+00 WtEn= 0.00D+00
 Coeff-Com: -0.294D-02 0.657D+00 0.346D+00
 Coeff:     -0.294D-02 0.657D+00 0.346D+00
 Gap=     0.109 Goal=   None    Shift=    0.000
 RMSDP=2.78D-05 MaxDP=2.20D-02 DE=-2.45D-08 OVMax= 2.12D-04

 Cycle   4  Pass 1  IDiag  1:
 RMSU=  9.14D-06    CP:  9.84D-01  1.04D+00  1.01D+00
 E= -2658.04894378206     Delta-E=       -0.000000085574 Rises=F Damp=F
 DIIS: error= 1.07D-05 at cycle   4 NSaved=   4.
 NSaved= 4 IEnMin= 4 EnMin= -2658.04894378206     IErMin= 4 ErrMin= 1.07D-05
 ErrMax= 1.07D-05  0.00D+00 EMaxC= 1.00D-01 BMatC= 7.02D-08 BMatP= 8.59D-08
 IDIUse=1 WtCom= 1.00D+00 WtEn= 0.00D+00
 Coeff-Com: -0.427D-03 0.850D-01 0.372D+00 0.544D+00
 Coeff:     -0.427D-03 0.850D-01 0.372D+00 0.544D+00
 Gap=     0.109 Goal=   None    Shift=    0.000
 RMSDP=2.77D-05 MaxDP=1.85D-02 DE=-8.56D-08 OVMax= 9.32D-05

 Cycle   5  Pass 1  IDiag  1:
 RMSU=  3.50D-06    CP:  9.84D-01  1.04D+00  1.03D+00  9.86D-01
 E= -2658.04894383366     Delta-E=       -0.000000051601 Rises=F Damp=F
 DIIS: error= 2.64D-06 at cycle   5 NSaved=   5.
 NSaved= 5 IEnMin= 5 EnMin= -2658.04894383366     IErMin= 5 ErrMin= 2.64D-06
 ErrMax= 2.64D-06  0.00D+00 EMaxC= 1.00D-01 BMatC= 7.06D-09 BMatP= 7.02D-08
 IDIUse=1 WtCom= 1.00D+00 WtEn= 0.00D+00
 Coeff-Com: -0.419D-04 0.189D-02 0.234D+00 0.373D+00 0.391D+00
 Coeff:     -0.419D-04 0.189D-02 0.234D+00 0.373D+00 0.391D+00
 Gap=     0.109 Goal=   None    Shift=    0.000
 RMSDP=5.23D-06 MaxDP=3.96D-03 DE=-5.16D-08 OVMax= 1.40D-05

 Cycle   6  Pass 1  IDiag  1:
 RMSU=  9.54D-07    CP:  9.84D-01  1.04D+00  1.03D+00  1.09D+00  1.07D+00
 E= -2658.04894383968     Delta-E=       -0.000000006023 Rises=F Damp=F
 DIIS: error= 5.22D-07 at cycle   6 NSaved=   6.
 NSaved= 6 IEnMin= 6 EnMin= -2658.04894383968     IErMin= 6 ErrMin= 5.22D-07
 ErrMax= 5.22D-07  0.00D+00 EMaxC= 1.00D-01 BMatC= 3.57D-10 BMatP= 7.06D-09
 IDIUse=1 WtCom= 1.00D+00 WtEn= 0.00D+00
 Coeff-Com:  0.911D-05-0.535D-02 0.103D+00 0.153D+00 0.229D+00 0.520D+00
 Coeff:      0.911D-05-0.535D-02 0.103D+00 0.153D+00 0.229D+00 0.520D+00
 Gap=     0.109 Goal=   None    Shift=    0.000
 RMSDP=7.72D-07 MaxDP=5.04D-04 DE=-6.02D-09 OVMax= 4.74D-06

 Cycle   7  Pass 1  IDiag  1:
 RMSU=  2.54D-07    CP:  9.84D-01  1.04D+00  1.03D+00  1.10D+00  1.12D+00
                    CP:  1.06D+00
 E= -2658.04894384002     Delta-E=       -0.000000000340 Rises=F Damp=F
 DIIS: error= 4.17D-07 at cycle   7 NSaved=   7.
 NSaved= 7 IEnMin= 7 EnMin= -2658.04894384002     IErMin= 7 ErrMin= 4.17D-07
 ErrMax= 4.17D-07  0.00D+00 EMaxC= 1.00D-01 BMatC= 5.57D-11 BMatP= 3.57D-10
 IDIUse=1 WtCom= 1.00D+00 WtEn= 0.00D+00
 Coeff-Com:  0.103D-04-0.405D-02 0.538D-01 0.758D-01 0.130D+00 0.352D+00
 Coeff-Com:  0.392D+00
 Coeff:      0.103D-04-0.405D-02 0.538D-01 0.758D-01 0.130D+00 0.352D+00
 Coeff:      0.392D+00
 Gap=     0.109 Goal=   None    Shift=    0.000
 RMSDP=2.89D-07 MaxDP=2.08D-04 DE=-3.40D-10 OVMax= 2.36D-06

 Cycle   8  Pass 1  IDiag  1:
 RMSU=  1.18D-07    CP:  9.84D-01  1.04D+00  1.03D+00  1.11D+00  1.13D+00
                    CP:  1.09D+00  1.08D+00
 E= -2658.04894384083     Delta-E=       -0.000000000804 Rises=F Damp=F
 DIIS: error= 2.85D-07 at cycle   8 NSaved=   8.
 NSaved= 8 IEnMin= 8 EnMin= -2658.04894384083     IErMin= 8 ErrMin= 2.85D-07
 ErrMax= 2.85D-07  0.00D+00 EMaxC= 1.00D-01 BMatC= 2.02D-11 BMatP= 5.57D-11
 IDIUse=1 WtCom= 1.00D+00 WtEn= 0.00D+00
 Coeff-Com:  0.614D-05-0.224D-02 0.237D-01 0.311D-01 0.623D-01 0.191D+00
 Coeff-Com:  0.342D+00 0.352D+00
 Coeff:      0.614D-05-0.224D-02 0.237D-01 0.311D-01 0.623D-01 0.191D+00
 Coeff:      0.342D+00 0.352D+00
 Gap=     0.109 Goal=   None    Shift=    0.000
 RMSDP=3.55D-07 MaxDP=2.26D-04 DE=-8.04D-10 OVMax= 1.08D-06

 Cycle   9  Pass 1  IDiag  1:
 RMSU=  1.09D-07    CP:  9.84D-01  1.04D+00  1.03D+00  1.11D+00  1.14D+00
                    CP:  1.13D+00  1.16D+00  2.32D+00
 E= -2658.04894384216     Delta-E=       -0.000000001333 Rises=F Damp=F
 DIIS: error= 4.15D-08 at cycle   9 NSaved=   9.
 NSaved= 9 IEnMin= 9 EnMin= -2658.04894384216     IErMin= 9 ErrMin= 4.15D-08
 ErrMax= 4.15D-08  0.00D+00 EMaxC= 1.00D-01 BMatC= 1.22D-12 BMatP= 2.02D-11
 IDIUse=1 WtCom= 1.00D+00 WtEn= 0.00D+00
 Coeff-Com:  0.198D-05-0.100D-02 0.648D-02 0.823D-02 0.196D-01 0.699D-01
 Coeff-Com:  0.161D+00 0.234D+00 0.502D+00
 Coeff:      0.198D-05-0.100D-02 0.648D-02 0.823D-02 0.196D-01 0.699D-01
 Coeff:      0.161D+00 0.234D+00 0.502D+00
 Gap=     0.109 Goal=   None    Shift=    0.000
 RMSDP=9.86D-07 MaxDP=6.42D-04 DE=-1.33D-09 OVMax= 1.81D-07

 Cycle  10  Pass 1  IDiag  1:
 RMSU=  3.71D-07    CP:  9.84D-01  1.04D+00  1.03D+00  1.13D+00  1.17D+00
                    CP:  1.27D+00  1.38D+00  3.00D+00  3.00D+00
 E= -2658.04894384327     Delta-E=       -0.000000001111 Rises=F Damp=F
 DIIS: error= 7.00D-08 at cycle  10 NSaved=  10.
 NSaved=10 IEnMin=10 EnMin= -2658.04894384327     IErMin= 9 ErrMin= 4.15D-08
 ErrMax= 7.00D-08  0.00D+00 EMaxC= 1.00D-01 BMatC= 4.38D-13 BMatP= 1.22D-12
 IDIUse=1 WtCom= 1.00D+00 WtEn= 0.00D+00
 Coeff-Com:  0.120D-05-0.880D-03 0.440D-02 0.576D-02 0.139D-01 0.515D-01
 Coeff-Com:  0.120D+00 0.177D+00 0.385D+00 0.244D+00
 Coeff:      0.120D-05-0.880D-03 0.440D-02 0.576D-02 0.139D-01 0.515D-01
 Coeff:      0.120D+00 0.177D+00 0.385D+00 0.244D+00
 Gap=     0.109 Goal=   None    Shift=    0.000
 RMSDP=6.49D-07 MaxDP=4.22D-04 DE=-1.11D-09 OVMax= 4.77D-08

 Cycle  11  Pass 1  IDiag  1:
 RMSU=  1.18D-07    CP:  9.84D-01  1.04D+00  1.03D+00  1.15D+00  1.19D+00
                    CP:  1.37D+00  1.55D+00  3.00D+00  3.00D+00  1.89D+00
 E= -2658.04894384436     Delta-E=       -0.000000001090 Rises=F Damp=F
 DIIS: error= 7.60D-08 at cycle  11 NSaved=  11.
 NSaved=11 IEnMin=11 EnMin= -2658.04894384436     IErMin= 9 ErrMin= 4.15D-08
 ErrMax= 7.60D-08  0.00D+00 EMaxC= 1.00D-01 BMatC= 3.83D-13 BMatP= 4.38D-13
 IDIUse=1 WtCom= 1.00D+00 WtEn= 0.00D+00
 Coeff-Com:  0.125D-05-0.868D-03 0.425D-02 0.556D-02 0.137D-01 0.514D-01
 Coeff-Com:  0.121D+00 0.184D+00 0.422D+00 0.468D+00-0.269D+00
 Coeff:      0.125D-05-0.868D-03 0.425D-02 0.556D-02 0.137D-01 0.514D-01
 Coeff:      0.121D+00 0.184D+00 0.422D+00 0.468D+00-0.269D+00
 Gap=     0.109 Goal=   None    Shift=    0.000
 RMSDP=2.63D-07 MaxDP=1.71D-04 DE=-1.09D-09 OVMax= 1.82D-08

 Cycle  12  Pass 1  IDiag  1:
 RMSU=  9.51D-08    CP:  9.84D-01  1.04D+00  1.03D+00  1.14D+00  1.18D+00
                    CP:  1.33D+00  1.57D+00  3.00D+00  3.00D+00  1.63D+00
                    CP:  6.10D-01
 E= -2658.04894384398     Delta-E=        0.000000000378 Rises=F Damp=F
 DIIS: error= 6.36D-08 at cycle  12 NSaved=  12.
 NSaved=12 IEnMin=11 EnMin= -2658.04894384436     IErMin= 9 ErrMin= 4.15D-08
 ErrMax= 6.36D-08  0.00D+00 EMaxC= 1.00D-01 BMatC= 3.58D-13 BMatP= 3.83D-13
 IDIUse=1 WtCom= 1.00D+00 WtEn= 0.00D+00
 Coeff-Com:  0.118D-05-0.856D-03 0.414D-02 0.544D-02 0.133D-01 0.503D-01
 Coeff-Com:  0.119D+00 0.180D+00 0.413D+00 0.470D+00-0.404D+00 0.150D+00
 Coeff:      0.118D-05-0.856D-03 0.414D-02 0.544D-02 0.133D-01 0.503D-01
 Coeff:      0.119D+00 0.180D+00 0.413D+00 0.470D+00-0.404D+00 0.150D+00
 Gap=     0.109 Goal=   None    Shift=    0.000
 RMSDP=3.64D-08 MaxDP=1.05D-05 DE= 3.78D-10 OVMax= 4.26D-09

 Error on total polarization charges =  0.02518
 SCF Done:  E(RB3LYP) =  -2658.04894384     A.U. after   12 cycles
            NFock= 12  Conv=0.36D-07     -V/T= 2.0592
 KE= 2.509414935822D+03 PE=-2.247214170921D+04 EE= 9.097781426210D+03
 Leave Link  502 at Tue Jan 21 10:33:03 2014, MaxMem=  3221225472 cpu:     37229.2
 (Enter /pkg/chem/gaussian/g09d01/g09/l508.exe)
 QCSCF skips out because SCF is already converged.
 Leave Link  508 at Tue Jan 21 10:33:03 2014, MaxMem=  3221225472 cpu:         0.0
 (Enter /pkg/chem/gaussian/g09d01/g09/l801.exe)
 DoSCS=F DFT=T ScalE2(SS,OS)=  1.000000  1.000000
 ExpMin= 2.50D-02 ExpMax= 7.00D+03 ExpMxC= 1.05D+03 IAcc=3 IRadAn=         5 AccDes= 0.00D+00
 HarFok:  IExCor=  205 AccDes= 0.00D+00 IRadAn=         5 IDoV=-2 UseB2=F ITyADJ=14
 ICtDFT= 12500011 ScaDFX=  1.000000  1.000000  1.000000  1.000000
 Defaulting to unpruned grid for atomic number  44.
 Defaulting to unpruned grid for atomic number  44.
 Defaulting to unpruned grid for atomic number  44.
 Defaulting to unpruned grid for atomic number  44.
 Defaulting to unpruned grid for atomic number  44.
 Defaulting to unpruned grid for atomic number  44.
 Defaulting to unpruned grid for atomic number  44.
 Defaulting to unpruned grid for atomic number  44.
 Defaulting to unpruned grid for atomic number  44.
 Defaulting to unpruned grid for atomic number  44.
 Defaulting to unpruned grid for atomic number  44.
 Defaulting to unpruned grid for atomic number  44.
 Defaulting to unpruned grid for atomic number  44.
 Defaulting to unpruned grid for atomic number  44.
 Defaulting to unpruned grid for atomic number  44.
 Defaulting to unpruned grid for atomic number  44.
 Defaulting to unpruned grid for atomic number  44.
 Defaulting to unpruned grid for atomic number  44.
 Defaulting to unpruned grid for atomic number  44.
 Defaulting to unpruned grid for atomic number  44.
 Defaulting to unpruned grid for atomic number  44.
 Defaulting to unpruned grid for atomic number  44.
 Defaulting to unpruned grid for atomic number  44.
 Defaulting to unpruned grid for atomic number  44.
 Largest valence mixing into a core orbital is  1.27D-03
 Largest core mixing into a valence orbital is  7.68D-04
 Range of M.O.s used for correlation:    65  1130
 NBasis=  1148 NAE=   207 NBE=   207 NFC=    64 NFV=     0
 NROrb=   1066 NOA=   143 NOB=   143 NVA=   923 NVB=   923

 **** Warning!!: The largest alpha MO coefficient is  0.18144649D+03

 Leave Link  801 at Tue Jan 21 10:33:04 2014, MaxMem=  3221225472 cpu:        25.6
 (Enter /pkg/chem/gaussian/g09d01/g09/l914.exe)
 RHF ground state
 MDV=  3221225472 DFT=T DoStab=F Mixed=T DoRPA=T DoScal=F NonHer=T
 Would need an additional        690495000000 words for in-memory AO integral storage.
 NEqPCM:  Using non-equilibrium solvation (IEInf=1, Eps=  35.6880, EpsInf=   1.8069)
 Inv3:  Mode=1 IEnd=   119259075.
 Iteration    1 A*A^-1 deviation from unit magnitude is 6.44D-15 for   6300.
 Iteration    1 A*A^-1 deviation from orthogonality  is 4.88D-15 for   6305   5390.
 Iteration    1 A^-1*A deviation from unit magnitude is 6.44D-15 for   6300.
 Iteration    1 A^-1*A deviation from orthogonality  is 3.08D-15 for   5683   5627.
 Making orbital integer symmetry assigments:
   280 initial guesses have been made.
 Convergence on wavefunction:    0.001000000000000
 Davidson Disk Diagonalization:  ConvIn= 1.00D-03 SkipCon=T Conv= 1.00D-03.
 Max sub-space:  1120 roots to seek:   280 dimension of matrix:       263978
 Iteration     1 Dimension   280 NMult     0 NNew    280
 CISAX will form    72 AO SS matrices at one time.
 NMat=    72 NSing=    72 JSym2X= 0.
 FoFJK:  IHMeth= 1 ICntrl=       0 DoSepK=F KAlg= 0 I1Cent=   0 FoldK=F
 IRaf=         0 NMat= 144 IRICut=       1 DoRegI=T DoRafI=F ISym2E= 0.
 Defaulting to unpruned grid for atomic number  44.
 Defaulting to unpruned grid for atomic number  44.
 Defaulting to unpruned grid for atomic number  44.
 Defaulting to unpruned grid for atomic number  44.
 Defaulting to unpruned grid for atomic number  44.
 Defaulting to unpruned grid for atomic number  44.
 Defaulting to unpruned grid for atomic number  44.
 Defaulting to unpruned grid for atomic number  44.
 Defaulting to unpruned grid for atomic number  44.
 Defaulting to unpruned grid for atomic number  44.
 Defaulting to unpruned grid for atomic number  44.
 Defaulting to unpruned grid for atomic number  44.
 Defaulting to unpruned grid for atomic number  44.
 Defaulting to unpruned grid for atomic number  44.
 Defaulting to unpruned grid for atomic number  44.
 Defaulting to unpruned grid for atomic number  44.
 Defaulting to unpruned grid for atomic number  44.
 Defaulting to unpruned grid for atomic number  44.
 Defaulting to unpruned grid for atomic number  44.
 Defaulting to unpruned grid for atomic number  44.
 Defaulting to unpruned grid for atomic number  44.
 Defaulting to unpruned grid for atomic number  44.
 Defaulting to unpruned grid for atomic number  44.
 Defaulting to unpruned grid for atomic number  44.
 NMat=    72 NSing=    72 JSym2X= 0.
 NMat=    72 NSing=    72 JSym2X= 0.
 NMat=    64 NSing=    64 JSym2X= 0.
 New state      4 was old state      5
 New state      5 was old state      8
 New state      6 was old state      9
 New state      7 was old state      4
 New state      8 was old state     14
 New state      9 was old state     10
 New state     10 was old state     11
 New state     11 was old state      6
 New state     12 was old state     13
 New state     13 was old state     15
 New state     14 was old state     19
 New state     15 was old state     24
 New state     16 was old state      7
 New state     17 was old state     54
 New state     18 was old state     22
 New state     19 was old state     67
 New state     20 was old state     44
 New state     22 was old state     12
 New state     23 was old state     55
 New state     24 was old state     40
 New state     25 was old state     37
 New state     26 was old state     17
 New state     27 was old state     18
 New state     28 was old state     20
 New state     29 was old state     25
 New state     30 was old state     23
 New state     31 was old state     45
 New state     32 was old state     26
 New state     33 was old state     29
 New state     34 was old state     46
 New state     35 was old state     51
 New state     36 was old state     31
 New state     37 was old state     27
 New state     38 was old state     32
 New state     39 was old state     90
 New state     40 was old state     28
 New state     41 was old state     57
 New state     42 was old state     59
 New state     43 was old state     33
 New state     44 was old state     30
 New state     45 was old state     35
 New state     46 was old state     39
 New state     47 was old state     66
 New state     48 was old state     62
 New state     49 was old state     38
 New state     50 was old state     74
 New state     51 was old state     34
 New state     52 was old state     42
 New state     53 was old state     71
 New state     54 was old state     49
 New state     55 was old state    163
 New state     56 was old state    164
 New state     57 was old state     72
 New state     58 was old state     36
 New state     59 was old state     43
 New state     60 was old state     82
 New state     61 was old state     41
 New state     62 was old state     86
 New state     63 was old state     60
 New state     64 was old state     63
 New state     65 was old state    190
 New state     66 was old state     65
 New state     67 was old state     47
 New state     68 was old state     81
 New state     69 was old state     73
 New state     70 was old state     48
 Excitation Energies [eV] at current iteration:
 Root      1 :     2.447547225719065
 Root      2 :     2.611643884234563
 Root      3 :     2.627609409842412
 Root      4 :     2.652723960986048
 Root      5 :     2.666901329586344
 Root      6 :     2.667807166022460
 Root      7 :     2.725112232522775
 Root      8 :     2.824944299860522
 Root      9 :     2.843069433335197
 Root     10 :     2.858031910237659
 Root     11 :     2.973209729052874
 Root     12 :     2.998662431254195
 Root     13 :     3.017460819581403
 Root     14 :     3.108864497578109
 Root     15 :     3.288746839207918
 Root     16 :     3.294453146354118
 Root     17 :     3.319052822001137
 Root     18 :     3.335830910658087
 Root     19 :     3.390492273708099
 Root     20 :     3.411691545151828
 Root     21 :     3.434676724259957
 Root     22 :     3.461462779824952
 Root     23 :     3.482241010319804
 Root     24 :     3.508883984608135
 Root     25 :     3.541726040051034
 Root     26 :     3.542412347144202
 Root     27 :     3.583774777614853
 Root     28 :     3.621673195105096
 Root     29 :     3.634064309565290
 Root     30 :     3.717170758735316
 Root     31 :     3.719483331548806
 Root     32 :     3.730191049944314
 Root     33 :     3.755440486498126
 Root     34 :     3.760347701075878
 Root     35 :     3.769233448985405
 Root     36 :     3.801992792205791
 Root     37 :     3.839121230752629
 Root     38 :     3.852502686682403
 Root     39 :     3.876552129172932
 Root     40 :     3.876963818580863
 Root     41 :     3.881950214188148
 Root     42 :     3.882874842954916
 Root     43 :     3.889725707200022
 Root     44 :     3.917299873444522
 Root     45 :     3.929725324566794
 Root     46 :     3.949196436751577
 Root     47 :     3.967171501120280
 Root     48 :     3.971283528105419
 Root     49 :     3.988255618437928
 Root     50 :     4.006087087988586
 Root     51 :     4.017607719394466
 Root     52 :     4.039688567326714
 Root     53 :     4.045367344618085
 Root     54 :     4.050888566767648
 Root     55 :     4.055494713308359
 Root     56 :     4.057547824267102
 Root     57 :     4.077416983720406
 Root     58 :     4.083591602190713
 Root     59 :     4.084429789603764
 Root     60 :     4.108033555694004
 Root     61 :     4.135092490247974
 Root     62 :     4.156129199494601
 Root     63 :     4.165847915981522
 Root     64 :     4.218905738084746
 Root     65 :     4.219473087201819
 Root     66 :     4.245265327998137
 Root     67 :     4.256296076940534
 Root     68 :     4.262406875988772
 Root     69 :     4.289836065287741
 Root     70 :     4.294401111252549
 Root     71 :     4.302498427496342
 Root     72 :     4.303735026709600
 Root     73 :     4.315183238634401
 Root     74 :     4.319443981011802
 Root     75 :     4.351378328808211
 Root     76 :     4.360910545174827
 Root     77 :     4.363282781379318
 Root     78 :     4.369794716279197
 Root     79 :     4.405491704700806
 Root     80 :     4.451367908038800
 Root     81 :     4.473487808320112
 Root     82 :     4.478825233226980
 Root     83 :     4.485460403345014
 Root     84 :     4.491519324494286
 Root     85 :     4.504616050381446
 Root     86 :     4.535944589974547
 Root     87 :     4.550535221361897
 Root     88 :     4.568528395274409
 Root     89 :     4.569345424604998
 Root     90 :     4.584916794862911
 Root     91 :     4.587932367814588
 Root     92 :     4.590573809316389
 Root     93 :     4.602415283004458
 Root     94 :     4.619734338997876
 Root     95 :     4.624957324667798
 Root     96 :     4.640495237666288
 Root     97 :     4.644628201579216
 Root     98 :     4.647093042878150
 Root     99 :     4.663250884438532
 Root    100 :     4.679397595076852
 Root    101 :     4.704345516776553
 Root    102 :     4.707613610144195
 Root    103 :     4.741926754864499
 Root    104 :     4.755163123948383
 Root    105 :     4.779911704995944
 Root    106 :     4.797658703871307
 Root    107 :     4.824523661352390
 Root    108 :     4.834378294172011
 Root    109 :     4.847412025317277
 Root    110 :     4.849680784156705
 Root    111 :     4.854445623721683
 Root    112 :     4.873438006004656
 Root    113 :     4.876521071609877
 Root    114 :     4.887885015468553
 Root    115 :     4.890122835278774
 Root    116 :     4.899740701448035
 Root    117 :     4.934547350709468
 Root    118 :     4.942017795222542
 Root    119 :     4.953021955571478
 Root    120 :     4.958368086637254
 Root    121 :     4.960179891249655
 Root    122 :     4.967300986695091
 Root    123 :     4.978565141918450
 Root    124 :     4.992511217302648
 Root    125 :     4.999114780648642
 Root    126 :     5.019907951807243
 Root    127 :     5.050806094304360
 Root    128 :     5.089235039753003
 Root    129 :     5.106402696806718
 Root    130 :     5.123936901299808
 Root    131 :     5.142654632453874
 Root    132 :     5.149902235326953
 Root    133 :     5.154290457070474
 Root    134 :     5.155895028007695
 Root    135 :     5.163512183301287
 Root    136 :     5.167870519993987
 Root    137 :     5.186149566577182
 Root    138 :     5.193769057950553
 Root    139 :     5.194683723642167
 Root    140 :     5.198347000666344
 Root    141 :     5.202087816010977
 Root    142 :     5.204884343801376
 Root    143 :     5.226942010111751
 Root    144 :     5.229490542763156
 Root    145 :     5.241550555848951
 Root    146 :     5.255017265689638
 Root    147 :     5.271813483683477
 Root    148 :     5.272383676361290
 Root    149 :     5.306599049246995
 Root    150 :     5.322432484043156
 Root    151 :     5.335275228606036
 Root    152 :     5.341692916436982
 Root    153 :     5.351758295689006
 Root    154 :     5.355818915390180
 Root    155 :     5.369301611865048
 Root    156 :     5.375891287522506
 Root    157 :     5.377392242281111
 Root    158 :     5.380904912087238
 Root    159 :     5.386025604164642
 Root    160 :     5.388358839517516
 Root    161 :     5.395274304721916
 Root    162 :     5.400623020910915
 Root    163 :     5.401097057078724
 Root    164 :     5.408851061185787
 Root    165 :     5.428423386670612
 Root    166 :     5.434506134791010
 Root    167 :     5.444079390957138
 Root    168 :     5.467796053891655
 Root    169 :     5.476209041707111
 Root    170 :     5.489798315775491
 Root    171 :     5.506916762586030
 Root    172 :     5.508816135396631
 Root    173 :     5.526765316172325
 Root    174 :     5.535231298317000
 Root    175 :     5.549900131791078
 Root    176 :     5.553015952253284
 Root    177 :     5.554856997657506
 Root    178 :     5.561675020916494
 Root    179 :     5.565709668904511
 Root    180 :     5.567746391349981
 Root    181 :     5.568624758877627
 Root    182 :     5.581547740627618
 Root    183 :     5.585519591040517
 Root    184 :     5.594245318961365
 Root    185 :     5.595493296839678
 Root    186 :     5.601030203972703
 Root    187 :     5.609327723856138
 Root    188 :     5.614290201151613
 Root    189 :     5.615743019730034
 Root    190 :     5.617957169536294
 Root    191 :     5.625102432340793
 Root    192 :     5.628527950509084
 Root    193 :     5.634197236434199
 Root    194 :     5.642784753205032
 Root    195 :     5.648435956096165
 Root    196 :     5.651259793611111
 Root    197 :     5.658040033721894
 Root    198 :     5.662277920142519
 Root    199 :     5.664778009260516
 Root    200 :     5.668020709426409
 Root    201 :     5.677919367427893
 Root    202 :     5.698659627088684
 Root    203 :     5.701200327015728
 Root    204 :     5.722469499782346
 Root    205 :     5.723109285754638
 Root    206 :     5.726632081552713
 Root    207 :     5.736660411223925
 Root    208 :     5.737571088644803
 Root    209 :     5.743032991295466
 Root    210 :     5.746976924327206
 Root    211 :     5.751965313259360
 Root    212 :     5.753495342671406
 Root    213 :     5.774585063262378
 Root    214 :     5.776516978926510
 Root    215 :     5.790666499560517
 Root    216 :     5.792129338019658
 Root    217 :     5.810313195302574
 Root    218 :     5.814533201338564
 Root    219 :     5.821024735951520
 Root    220 :     5.824491087334879
 Root    221 :     5.833424534857492
 Root    222 :     5.837398244650749
 Root    223 :     5.842012445094946
 Root    224 :     5.848388460048080
 Root    225 :     5.849531103136845
 Root    226 :     5.857285212306942
 Root    227 :     5.859150570277543
 Root    228 :     5.867456920958809
 Root    229 :     5.873844659351550
 Root    230 :     5.877940545232641
 Root    231 :     5.885074062133463
 Root    232 :     5.892354188670237
 Root    233 :     5.899350959284869
 Root    234 :     5.902224964848903
 Root    235 :     5.917431217465860
 Root    236 :     5.918829596997703
 Root    237 :     5.922455611585642
 Root    238 :     5.923380431054261
 Root    239 :     5.949752942695022
 Root    240 :     5.951587817046424
 Root    241 :     5.957602863388921
 Root    242 :     5.974737572839057
 Root    243 :     5.985159513426082
 Root    244 :     5.994519418105619
 Root    245 :     6.015139381131221
 Root    246 :     6.017921241996087
 Root    247 :     6.035211162283977
 Root    248 :     6.037814376098711
 Root    249 :     6.041290356648043
 Root    250 :     6.047443557920586
 Root    251 :     6.061529571545220
 Root    252 :     6.079226979924953
 Root    253 :     6.084236730229134
 Root    254 :     6.085792154338217
 Root    255 :     6.089032749422752
 Root    256 :     6.094720036986507
 Root    257 :     6.120908362677796
 Root    258 :     6.147569318973711
 Root    259 :     6.158131948757751
 Root    260 :     6.162236753291181
 Root    261 :     6.178089529943827
 Root    262 :     6.190814125680107
 Root    263 :     6.207425710114735
 Root    264 :     6.209328188305420
 Root    265 :     6.217533079299352
 Root    266 :     6.224226386785819
 Root    267 :     6.247063771030326
 Root    268 :     6.250394191803174
 Root    269 :     6.269851137213966
 Root    270 :     6.270332732823467
 Root    271 :     6.327066991591558
 Root    272 :     6.335728294191970
 Root    273 :     6.487141998008490
 Root    274 :     6.551139903555280
 Root    275 :     6.589985025713066
 Root    276 :     6.682285665326707
 Root    277 :     6.818755934130206
 Root    278 :     6.849649432887474
 Root    279 :     6.973472892952802
 Root    280 :     7.142014853556901
 Iteration     2 Dimension   420 NMult   280 NNew    140
 CISAX will form    72 AO SS matrices at one time.
 NMat=    72 NSing=    72 JSym2X= 0.
 NMat=    68 NSing=    68 JSym2X= 0.
 Root      1 not converged, maximum delta is    0.021268095956574
 Root      2 not converged, maximum delta is    0.022521105784086
 Root      3 not converged, maximum delta is    0.055394996462405
 Root      4 not converged, maximum delta is    0.101985932200532
 New state      5 was old state      6
 Root      5 not converged, maximum delta is    0.319945756855133
 New state      6 was old state      5
 Root      6 not converged, maximum delta is    0.367352856736543
 Root      7 not converged, maximum delta is    0.020463706731689
 Root      8 not converged, maximum delta is    0.036589068984948
 Root      9 not converged, maximum delta is    0.038033437946670
 Root     10 not converged, maximum delta is    0.062281967465570
 New state     11 was old state     12
 Root     11 not converged, maximum delta is    0.144739142265967
 New state     12 was old state     13
 Root     12 not converged, maximum delta is    0.076382779015501
 New state     13 was old state     11
 Root     13 not converged, maximum delta is    0.050566164001268
 New state     14 was old state     16
 Root     14 not converged, maximum delta is    0.182535589256408
 New state     15 was old state     14
 Root     15 not converged, maximum delta is    0.151396049247799
 New state     16 was old state     17
 Root     16 not converged, maximum delta is    0.111964136073940
 New state     17 was old state     15
 Root     17 not converged, maximum delta is    0.253318926378026
 New state     18 was old state     19
 Root     18 not converged, maximum delta is    0.216217289816180
 New state     19 was old state     18
 Root     19 not converged, maximum delta is    0.107694871775934
 New state     20 was old state     23
 Root     20 not converged, maximum delta is    0.346999837811548
 New state     21 was old state     20
 Root     21 not converged, maximum delta is    0.051277047279425
 New state     22 was old state     26
 Root     22 not converged, maximum delta is    0.283354238851026
 New state     23 was old state     21
 Root     23 not converged, maximum delta is    0.341686966769945
 Root     24 not converged, maximum delta is    0.481700779199731
 New state     25 was old state     22
 Root     25 not converged, maximum delta is    0.014745120859514
 New state     26 was old state     25
 Root     26 not converged, maximum delta is    0.026364985677443
 New state     27 was old state     29
 Root     27 not converged, maximum delta is    0.085082057168845
 New state     28 was old state     27
 Root     28 not converged, maximum delta is    0.071028670819111
 New state     29 was old state     28
 Root     29 has converged.
 New state     30 was old state     31
 Root     30 not converged, maximum delta is    0.069393118835885
 New state     31 was old state     30
 Root     31 not converged, maximum delta is    0.059371370476294
 New state     32 was old state     34
 Root     32 not converged, maximum delta is    0.225913886797908
 New state     33 was old state     32
 Root     33 not converged, maximum delta is    0.012174225859560
 New state     34 was old state     35
 Root     34 not converged, maximum delta is    0.094757239109212
 New state     35 was old state     62
 Root     35 not converged, maximum delta is    0.269827461479661
 New state     36 was old state     33
 Root     36 not converged, maximum delta is    0.237322819445190
 New state     37 was old state     55
 Root     37 not converged, maximum delta is    0.308808319919921
 New state     38 was old state     36
 Root     38 not converged, maximum delta is    0.236892655272187
 Root     39 not converged, maximum delta is    0.373027120627027
 New state     40 was old state     56
 Root     40 not converged, maximum delta is    0.315417579099010
 New state     41 was old state     37
 Root     41 not converged, maximum delta is    0.118373846492447
 New state     42 was old state     41
 Root     42 not converged, maximum delta is    0.291418625384481
 New state     43 was old state     38
 Root     43 not converged, maximum delta is    0.177348139273784
 New state     44 was old state     45
 Root     44 not converged, maximum delta is    0.298427193599778
 New state     45 was old state     42
 Root     45 not converged, maximum delta is    0.239005666711226
 New state     46 was old state     43
 Root     46 not converged, maximum delta is    0.297391382014433
 New state     47 was old state     40
 Root     47 not converged, maximum delta is    0.273096944353155
 New state     48 was old state     46
 Root     48 not converged, maximum delta is    0.396508369938261
 New state     49 was old state     44
[...]
 Alpha virt. eigenvalues --    0.47209   0.47352   0.47589   0.47977   0.48156
 Alpha virt. eigenvalues --    0.49294   0.49441   0.49479   0.49831   0.49875
 Alpha virt. eigenvalues --    0.50754   0.51378   0.51631   0.51777   0.51939
 Alpha virt. eigenvalues --    0.52435   0.53473   0.53538   0.53665   0.54024
 Alpha virt. eigenvalues --    0.54638   0.54991   0.55009   0.56284   0.56393
 Alpha virt. eigenvalues --    0.56838   0.57264   0.58121   0.58207   0.58749
 Alpha virt. eigenvalues --    0.58871   0.59815   0.59898   0.60286   0.60498
 Alpha virt. eigenvalues --    0.60936   0.61165   0.62129   0.63591   0.63789
 Alpha virt. eigenvalues --    0.64833   0.65364   0.65999   0.66040   0.66665
 Alpha virt. eigenvalues --    0.66720   0.68019   0.68595   0.68822   0.69137
 Alpha virt. eigenvalues --    0.69300   0.69388   0.69641   0.69947   0.70122
 Alpha virt. eigenvalues --    0.70339   0.70559   0.70982   0.71505   0.71612
 Alpha virt. eigenvalues --    0.71660   0.72027   0.72152   0.72437   0.72521
 Alpha virt. eigenvalues --    0.72757   0.72930   0.73097   0.73252   0.73661
 Alpha virt. eigenvalues --    0.73958   0.74254   0.74386   0.74801   0.74877
 Alpha virt. eigenvalues --    0.75276   0.75752   0.75978   0.76165   0.76332
 Alpha virt. eigenvalues --    0.76816   0.77017   0.77312   0.77672   0.77821
 Alpha virt. eigenvalues --    0.78178   0.78463   0.78542   0.78876   0.78992
 Alpha virt. eigenvalues --    0.79514   0.79876   0.80084   0.80870   0.80983
 Alpha virt. eigenvalues --    0.81137   0.81244   0.81342   0.81685   0.81981
 Alpha virt. eigenvalues --    0.82318   0.82604   0.82788   0.83106   0.83365
 Alpha virt. eigenvalues --    0.84240   0.84278   0.84460   0.85142   0.85261
 Alpha virt. eigenvalues --    0.85396   0.85665   0.86049   0.86144   0.86476
 Alpha virt. eigenvalues --    0.86605   0.86962   0.88048   0.88696   0.88909
 Alpha virt. eigenvalues --    0.89087   0.89339   0.89479   0.89759   0.90087
 Alpha virt. eigenvalues --    0.90592   0.90706   0.90894   0.91077   0.91243
 Alpha virt. eigenvalues --    0.91489   0.91966   0.92392   0.92636   0.92787
 Alpha virt. eigenvalues --    0.93821   0.93996   0.94514   0.94784   0.94989
 Alpha virt. eigenvalues --    0.95093   0.95132   0.95526   0.95876   0.95980
 Alpha virt. eigenvalues --    0.96153   0.96924   0.97203   0.97540   0.97684
 Alpha virt. eigenvalues --    0.98085   0.98641   0.98866   0.99410   0.99874
 Alpha virt. eigenvalues --    1.00219   1.00614   1.01074   1.01204   1.01587
 Alpha virt. eigenvalues --    1.02310   1.02541   1.03011   1.03365   1.03648
 Alpha virt. eigenvalues --    1.04684   1.05349   1.05517   1.05857   1.06221
 Alpha virt. eigenvalues --    1.06557   1.06970   1.07115   1.08476   1.08938
 Alpha virt. eigenvalues --    1.09679   1.09899   1.10092   1.10369   1.10555
 Alpha virt. eigenvalues --    1.11079   1.11525   1.12299   1.12754   1.13309
 Alpha virt. eigenvalues --    1.13583   1.13855   1.14072   1.14866   1.15004
 Alpha virt. eigenvalues --    1.15128   1.15742   1.15976   1.16497   1.17306
 Alpha virt. eigenvalues --    1.17600   1.18055   1.18310   1.18686   1.19037
 Alpha virt. eigenvalues --    1.19336   1.19703   1.19785   1.20174   1.20366
 Alpha virt. eigenvalues --    1.20442   1.21029   1.21370   1.21593   1.21772
 Alpha virt. eigenvalues --    1.22298   1.22430   1.22554   1.22676   1.23517
 Alpha virt. eigenvalues --    1.23579   1.23779   1.23827   1.23954   1.24352
 Alpha virt. eigenvalues --    1.24486   1.24674   1.24829   1.24893   1.26123
 Alpha virt. eigenvalues --    1.26284   1.26449   1.26976   1.27139   1.27838
 Alpha virt. eigenvalues --    1.27867   1.28177   1.28216   1.28868   1.28976
 Alpha virt. eigenvalues --    1.29636   1.29786   1.30324   1.30523   1.31015
 Alpha virt. eigenvalues --    1.31131   1.31417   1.32014   1.32198   1.32821
 Alpha virt. eigenvalues --    1.32936   1.33031   1.33312   1.33461   1.33706
 Alpha virt. eigenvalues --    1.33913   1.34597   1.34749   1.35205   1.35704
 Alpha virt. eigenvalues --    1.35837   1.36316   1.37235   1.37810   1.37954
 Alpha virt. eigenvalues --    1.38048   1.38418   1.39083   1.39209   1.39832
 Alpha virt. eigenvalues --    1.40730   1.40915   1.41398   1.41578   1.41859
 Alpha virt. eigenvalues --    1.42483   1.43355   1.43449   1.43687   1.44606
 Alpha virt. eigenvalues --    1.44659   1.45392   1.45613   1.45624   1.45823
 Alpha virt. eigenvalues --    1.46098   1.46207   1.46594   1.46769   1.47178
 Alpha virt. eigenvalues --    1.47452   1.47565   1.47777   1.48071   1.48224
 Alpha virt. eigenvalues --    1.48547   1.49015   1.49064   1.49956   1.50096
 Alpha virt. eigenvalues --    1.50375   1.50443   1.51052   1.52501   1.52608
 Alpha virt. eigenvalues --    1.53458   1.53593   1.54079   1.54199   1.55169
 Alpha virt. eigenvalues --    1.55451   1.55988   1.56649   1.57206   1.57631
 Alpha virt. eigenvalues --    1.58006   1.58114   1.58902   1.59162   1.60612
 Alpha virt. eigenvalues --    1.61013   1.62084   1.63333   1.63560   1.63862
 Alpha virt. eigenvalues --    1.64355   1.65618   1.65960   1.66369   1.67346
 Alpha virt. eigenvalues --    1.67826   1.68256   1.68815   1.69286   1.70447
 Alpha virt. eigenvalues --    1.70954   1.71383   1.71532   1.72025   1.72883
 Alpha virt. eigenvalues --    1.73225   1.73394   1.74184   1.74637   1.75310
 Alpha virt. eigenvalues --    1.75868   1.76377   1.76803   1.77312   1.78236
 Alpha virt. eigenvalues --    1.78285   1.79201   1.79405   1.79932   1.80045
 Alpha virt. eigenvalues --    1.80829   1.81328   1.82127   1.82286   1.83494
 Alpha virt. eigenvalues --    1.84449   1.84529   1.84775   1.85439   1.85713
 Alpha virt. eigenvalues --    1.86072   1.86464   1.86690   1.86983   1.87269
 Alpha virt. eigenvalues --    1.87567   1.88684   1.88816   1.89645   1.89936
 Alpha virt. eigenvalues --    1.90120   1.90200   1.90557   1.91199   1.91416
 Alpha virt. eigenvalues --    1.91658   1.92188   1.92313   1.92460   1.92945
 Alpha virt. eigenvalues --    1.93784   1.94593   1.94792   1.95054   1.95248
 Alpha virt. eigenvalues --    1.96037   1.96307   1.96843   1.96883   1.97530
 Alpha virt. eigenvalues --    1.98138   1.98959   1.99098   1.99170   1.99237
 Alpha virt. eigenvalues --    1.99576   2.00452   2.00721   2.00846   2.01537
 Alpha virt. eigenvalues --    2.01775   2.02044   2.03028   2.03445   2.03988
 Alpha virt. eigenvalues --    2.04864   2.05079   2.05843   2.06089   2.06439
 Alpha virt. eigenvalues --    2.07452   2.07602   2.07890   2.08149   2.08904
 Alpha virt. eigenvalues --    2.09502   2.10287   2.10866   2.11583   2.11801
 Alpha virt. eigenvalues --    2.12375   2.13590   2.13638   2.13907   2.14742
 Alpha virt. eigenvalues --    2.15206   2.15493   2.15603   2.15908   2.15967
 Alpha virt. eigenvalues --    2.16168   2.16353   2.17183   2.18019   2.18415
 Alpha virt. eigenvalues --    2.18718   2.18961   2.19125   2.19694   2.19805
 Alpha virt. eigenvalues --    2.20355   2.20944   2.21343   2.21396   2.21933
 Alpha virt. eigenvalues --    2.23044   2.23386   2.24618   2.24747   2.24913
 Alpha virt. eigenvalues --    2.25125   2.25296   2.25813   2.26063   2.26325
 Alpha virt. eigenvalues --    2.26944   2.27017   2.27435   2.27521   2.27685
 Alpha virt. eigenvalues --    2.27711   2.28087   2.28159   2.28831   2.28965
 Alpha virt. eigenvalues --    2.29300   2.29886   2.30248   2.31654   2.32017
 Alpha virt. eigenvalues --    2.32148   2.32221   2.32441   2.32892   2.33070
 Alpha virt. eigenvalues --    2.33660   2.33930   2.34457   2.34887   2.35249
 Alpha virt. eigenvalues --    2.35587   2.39056   2.39331   2.39427   2.40477
 Alpha virt. eigenvalues --    2.41204   2.42475   2.42865   2.44133   2.45075
 Alpha virt. eigenvalues --    2.45300   2.46022   2.46840   2.46870   2.48024
 Alpha virt. eigenvalues --    2.48250   2.48532   2.49621   2.49927   2.50954
 Alpha virt. eigenvalues --    2.52759   2.53542   2.54236   2.54992   2.55010
 Alpha virt. eigenvalues --    2.55644   2.55870   2.56407   2.57691   2.57758
 Alpha virt. eigenvalues --    2.58730   2.59767   2.60471   2.60573   2.60647
 Alpha virt. eigenvalues --    2.61295   2.61757   2.61824   2.62011   2.62345
 Alpha virt. eigenvalues --    2.62679   2.64976   2.65213   2.66253   2.66284
 Alpha virt. eigenvalues --    2.66695   2.67350   2.68108   2.68443   2.68839
 Alpha virt. eigenvalues --    2.69270   2.69819   2.70338   2.70727   2.71283
 Alpha virt. eigenvalues --    2.71425   2.72478   2.73134   2.73385   2.73825
 Alpha virt. eigenvalues --    2.74418   2.75162   2.75556   2.75880   2.76814
 Alpha virt. eigenvalues --    2.76977   2.77462   2.77597   2.79559   2.80027
 Alpha virt. eigenvalues --    2.81977   2.83265   2.83853   2.85545   2.86545
 Alpha virt. eigenvalues --    2.87069   2.87250   2.89220   2.89590   2.90730
 Alpha virt. eigenvalues --    2.91171   2.92403   2.92600   2.94866   2.95277
 Alpha virt. eigenvalues --    2.95625   2.95828   2.98690   2.99325   2.99375
 Alpha virt. eigenvalues --    3.00117   3.00972   3.02023   3.02796   3.02807
 Alpha virt. eigenvalues --    3.05749   3.08307   3.09539   3.11123   3.11480
 Alpha virt. eigenvalues --    3.12394   3.12844   3.16538   3.17935   3.18566
 Alpha virt. eigenvalues --    3.21039   3.25671   3.25978   3.26199   3.27007
 Alpha virt. eigenvalues --    3.34600   3.36044   3.37468   3.39320   3.40221
 Alpha virt. eigenvalues --    3.42128   3.47578   3.49095   3.51380   3.57679
 Alpha virt. eigenvalues --    9.94352   9.96766   9.97130  10.02163  10.22220
 Alpha virt. eigenvalues --   11.13061  11.13689  11.14238  11.36049  11.36397
 Alpha virt. eigenvalues --   17.24929  17.30566  17.31396  20.26045  20.38815
 Alpha virt. eigenvalues --   20.43929  34.41095  39.14436
          Condensed to atoms (all electrons):
 Mulliken charges:
               1
     1  Ru   4.340242
     2  N   -0.359665
     3  N   -0.321485
     4  C    0.131423
     5  C   -0.662738
     6  C   -0.733765
     7  C   -0.613127
     8  C    1.038063
     9  C    0.908830
    10  C   -0.798734
    11  C   -0.658745
    12  C   -0.737176
    13  C    0.158425
    14  H    0.251494
    15  H    0.230898
    16  H    0.232407
    17  H    0.225339
    18  H    0.225323
    19  H    0.231985
    20  H    0.230870
    21  H    0.251739
    22  N   -0.321406
    23  N   -0.358383
    24  C    0.152329
    25  C   -0.736507
    26  C   -0.671011
    27  C   -0.808608
    28  C    0.930569
    29  C    1.049038
    30  C   -0.614537
    31  C   -0.748329
    32  C   -0.657600
    33  C    0.125082
    34  H    0.251622
    35  H    0.230941
    36  H    0.232090
    37  H    0.225573
    38  H    0.225515
    39  H    0.232490
    40  H    0.230859
    41  H    0.251664
    42  N   -0.146271
    43  N   -0.148180
    44  C    0.210566
    45  C   -0.903424
    46  C   -0.542274
    47  C    0.572152
    48  C   -0.338231
    49  C   -0.321783
    50  C    0.565610
    51  C   -0.532009
    52  C   -0.919170
    53  C    0.217331
    54  H    0.253106
    55  H    0.232411
    56  H    0.249303
    57  H    0.249481
    58  H    0.232463
    59  H    0.253228
    60  C    0.194086
    61  C    0.225817
    62  C   -0.068978
    63  C   -0.001052
    64  N   -0.257245
    65  N   -0.257553
    66  C   -0.494985
    67  C   -0.586195
    68  C    0.656019
    69  C    0.575142
    70  C   -0.216612
    71  C   -0.482475
    72  H    0.255109
    73  H    0.252759
    74  H    0.259552
    75  C   -0.527713
    76  H    0.254273
    77  H    0.251481
    78  H    0.273656
    79  H    0.236433
    80  H    0.236359
    81  N   -0.094287
    82  N   -0.102671
    83  Rh   0.358097
    84  F   -0.663771
    85  C    0.143044
    86  C    0.145676
    87  O   -0.270732
    88  O   -0.270533
 Sum of Mulliken charges =   2.00000
 Mulliken charges with hydrogens summed into heavy atoms:
               1
     1  Ru   4.340242
     2  N   -0.359665
     3  N   -0.321485
     4  C    0.382917
     5  C   -0.431841
     6  C   -0.501358
     7  C   -0.387788
     8  C    1.038063
     9  C    0.908830
    10  C   -0.573411
    11  C   -0.426760
    12  C   -0.506306
    13  C    0.410163
    22  N   -0.321406
    23  N   -0.358383
    24  C    0.403952
    25  C   -0.505567
    26  C   -0.438922
    27  C   -0.583035
    28  C    0.930569
    29  C    1.049038
    30  C   -0.389022
    31  C   -0.515839
    32  C   -0.426742
    33  C    0.376745
    42  N   -0.146271
    43  N   -0.148180
    44  C    0.463672
    45  C   -0.671012
    46  C   -0.292971
    47  C    0.572152
    48  C   -0.338231
    49  C   -0.321783
    50  C    0.565610
    51  C   -0.282527
    52  C   -0.686707
    53  C    0.470560
    60  C    0.194086
    61  C    0.225817
    62  C   -0.068978
    63  C   -0.001052
    64  N   -0.257245
    65  N   -0.257553
    66  C   -0.258627
    67  C   -0.349762
    68  C    0.656019
    69  C    0.575142
    70  C   -0.216612
    71  C    0.284944
    75  C    0.251697
    81  N   -0.094287
    82  N   -0.102671
    83  Rh   0.358097
    84  F   -0.663771
    85  C    0.143044
    86  C    0.145676
    87  O   -0.270732
    88  O   -0.270533
         Mulliken charges condensed to fragments:
      1      4.340242
      2     -0.768642
      3     -0.778610
      4     -0.234771
      5     -0.127490
      6     -0.125055
      7      0.358097
      8     -0.663771
 Electronic spatial extent (au):  <R**2>=         154524.1169
 Charge=              2.0000 electrons
 Dipole moment (field-independent basis, Debye):
    X=              5.0666    Y=            -23.0382    Z=            -12.8028  Tot=             26.8392
 Quadrupole moment (field-independent basis, Debye-Ang):
   XX=           -261.8572   YY=           -409.7054   ZZ=           -350.8183
   XY=            -48.6537   XZ=            -34.4204   YZ=            -95.6570
 Traceless Quadrupole moment (field-independent basis, Debye-Ang):
   XX=             78.9365   YY=            -68.9118   ZZ=            -10.0247
   XY=            -48.6537   XZ=            -34.4204   YZ=            -95.6570
 Octapole moment (field-independent basis, Debye-Ang**2):
  XXX=            365.0909  YYY=          11275.4781  ZZZ=           5730.5331  XYY=           1047.9315
  XXY=           2089.4425  XXZ=           1304.7634  XZZ=            370.0214  YZZ=           4388.9571
  YYZ=           4680.4340  XYZ=            487.5271
 Hexadecapole moment (field-independent basis, Debye-Ang**3):
 XXXX=          -7803.6556 YYYY=        -247648.4427 ZZZZ=         -87672.7753 XXXY=          -6086.8973
 XXXZ=          -3428.9960 YYYX=         -24236.3746 YYYZ=        -115898.2539 ZZZX=          -7125.9797
 ZZZY=         -77847.6661 XXYY=         -24722.3334 XXZZ=         -11339.1725 YYZZ=         -82064.4266
 XXYZ=         -14410.4648 YYXZ=         -11219.6248 ZZXY=          -7363.8698
 N-N= 8.206896403331D+03 E-N=-2.247214170924D+04  KE= 2.509414935822D+03
 Leave Link  601 at Wed Jan 22 19:21:33 2014, MaxMem=  3221225472 cpu:        37.5
 (Enter /pkg/chem/gaussian/g09d01/g09/l9999.exe)

 Test job not archived.
 1\1\GINC-ALPS2-44\SP\RB3LYP TD-FC\Gen\C43H30F1N10O2Rh1Ru1(2+)\J13JAY00
 \22-Jan-2014\0\\#p b3lyp/gen pseudo=read nosymm scf(maxcycle=100,conve
 r=6,xqc) iop(4/5=1,9/40=2) EmpiricalDispersion=GD3 scrf(solvent=Aceton
 itrile) td(nstates=70) geom(allcheck)\\RuRh_CH3_CO2F_model2 complex\\2
 ,1\Ru,0,0.3453336588,-3.2445042336,-1.9264947873\N,0,1.2891295224,-2.1
 756968289,-3.4635959153\N,0,1.9698316666,-2.3942173864,-0.9173987946\C
 ,0,0.8718377812,-2.1218905307,-4.7429301788\C,0,1.5458256442,-1.396565
 7505,-5.7199889371\C,0,2.6996627662,-0.6983329899,-5.3599937907\C,0,3.
 1371866282,-0.7527762392,-4.0382807855\C,0,2.4172132048,-1.5010292088,
 -3.1010853864\C,0,2.7947765702,-1.6194174659,-1.678556884\C,0,3.915502
 2272,-0.9993475131,-1.1167409205\C,0,4.1918992411,-1.1707377178,0.2380
 359291\C,0,3.3384639935,-1.9630980338,1.0074872392\C,0,2.2405049581,-2
 .5555771232,0.3920829218\H,0,-0.031084756,-2.6737707655,-4.9742285237\
 H,0,1.1667277227,-1.3843809458,-6.7360253714\H,0,3.2514392161,-0.11962
 00308,-6.0936912085\H,0,4.0300583173,-0.2150286371,-3.7440293831\H,0,4
 .5690572113,-0.3882097725,-1.72684337\H,0,5.0591629384,-0.6930952029,0
 .6823741321\H,0,3.5123349445,-2.1253105698,2.065626898\H,0,1.553152980
 3,-3.1819455424,0.9476819815\N,0,-0.8782097753,-1.6845505981,-1.254065
 2609\N,0,-0.5639941827,-4.1095581841,-0.2477762354\C,0,-0.9718668237,-
 0.469479428,-1.8273804923\C,0,-1.8111677257,0.5260471765,-1.3377743593
 \C,0,-2.5841421245,0.2553285504,-0.2074898459\C,0,-2.4878377655,-0.998
 5856557,0.3921563204\C,0,-1.6247809897,-1.9586885586,-0.1458850409\C,0
 ,-1.4530109924,-3.3144117715,0.4129746983\C,0,-2.1318616182,-3.7827384
 965,1.542636498\C,0,-1.9004303089,-5.0790651885,1.9979859536\C,0,-0.99
 01694458,-5.8846388027,1.3117514041\C,0,-0.3452219768,-5.3622810641,0.
 1954051184\H,0,-0.3563860809,-0.307365809,-2.7038410122\H,0,-1.8515029
 395,1.4875764136,-1.8378056447\H,0,-3.2518065487,1.0060356909,0.202833
 2615\H,0,-3.0808538273,-1.2227332848,1.2703864023\H,0,-2.8346072754,-3
 .1452670575,2.0647158931\H,0,-2.422512485,-5.450890219,2.8736964736\H,
 0,-0.7769378713,-6.8998684534,1.6281558351\H,0,0.3738594156,-5.9479847
 754,-0.3643694184\N,0,-1.1177896601,-4.1604354388,-3.1256634018\N,0,1.
 3632588924,-4.9701656342,-2.5645119932\C,0,-2.3572340958,-3.7154475883
 ,-3.3755295353\C,0,-3.2536538588,-4.4186407076,-4.18766295\C,0,-2.8591
 659138,-5.6199961299,-4.759731975\C,0,-1.5641613273,-6.1050899018,-4.5
 068437015\C,0,-0.7222279859,-5.3425319987,-3.678791704\C,0,0.626582098
 5,-5.779870992,-3.3778893141\C,0,1.1324265658,-6.9829093957,-3.9003397
 332\C,0,2.449211464,-7.3463902882,-3.5684731974\C,0,3.1928422741,-6.51
 17417497,-2.7460596597\C,0,2.6180431901,-5.3314439475,-2.2619083269\H,
 0,-2.6306655243,-2.7720415863,-2.9177124707\H,0,-4.2448656571,-4.01357
 20796,-4.3594351626\H,0,-3.5285507366,-6.1885009999,-5.39524351\H,0,2.
 8633856602,-8.2693152493,-3.9581066938\H,0,4.2122242227,-6.7582973347,
 -2.4699331701\H,0,3.1684568709,-4.6613268533,-1.6121206524\C,0,-1.0622
 612874,-7.36204051,-5.0658836319\C,0,0.2747382764,-7.8003243651,-4.760
 8917457\C,0,-1.3884977424,-9.2363310115,-6.3557677587\C,0,-0.043683121
 2,-9.6830259364,-6.0404815363\N,0,0.7548352562,-8.9376913381,-5.243926
 3724\N,0,-1.8599442793,-8.0753708403,-5.8483687611\C,0,0.4552835217,-1
 0.9061852897,-6.5619370654\C,0,-2.2303676154,-10.0095919871,-7.1986322
 102\C,0,-1.7096754929,-11.1841612405,-7.6863625477\C,0,-0.3910479639,-
 11.6268379343,-7.370201288\C,0,-1.3542969473,-13.1638872379,-8.7259576
 575\C,0,0.9963388609,-13.6342136719,-7.9617719172\H,0,1.8285512308,-13
 .0676880914,-8.389095775\H,0,1.2157326572,-13.8820542926,-6.9195548847
 \H,0,0.8497378192,-14.552702676,-8.5305899701\C,0,-3.5998430489,-12.07
 5974397,-9.0739919866\H,0,-4.3325050101,-12.0758633634,-8.261973351\H,
 0,-3.6998828713,-11.1580636185,-9.6599605439\H,0,-3.7618573326,-12.940
 9311895,-9.7159430098\H,0,-3.2321299957,-9.6626067864,-7.4253253968\H,
 0,1.4609981992,-11.2274787895,-6.3155440247\N,0,-2.2508626388,-12.1574
 16094,-8.5195348175\N,0,-0.2276383979,-12.8401231871,-8.0289470678\Rh,
 0,-1.5954507723,-14.8336067718,-9.8288106033\F,0,-1.6818781257,-16.590
 2462658,-10.9100200923\C,0,-2.7607793735,-15.5505474573,-8.4618524769\
 C,0,-1.2813365619,-13.8086710099,-11.4401065535\O,0,-1.2567948086,-13.
 1676047811,-12.3947514422\O,0,-3.5749610888,-15.8924482366,-7.72457465
 32\\Version=AS64L-G09RevD.01\HF=-2658.0489438\RMSD=3.636e-08\PG=C01 [X
 (C43H30F1N10O2Rh1Ru1)]\\@


 A HARD FALL SHOULD MEAN A HIGH BOUNCE 
 IF ONE IS MADE OF THE RIGHT MATERIAL.

                -- THE CHEMIST ANALYST, MARCH 1950
 Job cpu time:      33 days  4 hours 42 minutes 37.2 seconds.
 File lengths (MBytes):  RWF=  19758 Int=      0 D2E=      0 Chk=   3319 Scr=      1
 Normal termination of Gaussian 09 at Wed Jan 22 19:21:55 2014.
