 Entering Gaussian System, Link 0=/pkg/chem/gaussian/g09d01/g09/g09
 Initial command:
 /pkg/chem/gaussian/g09d01/g09/l1.exe "/work/j13jay00/RuRh_CH3_CO2Cl_model2_PCM_CH3CN_Opt-TD.24197/Gau-19534.inp" -scrdir="/work/j13jay00/RuRh_CH3_CO2Cl_model2_PCM_CH3CN_Opt-TD.24197/"
 Entering Link 1 = /pkg/chem/gaussian/g09d01/g09/l1.exe PID=     19535.
  
 Copyright (c) 1988,1990,1992,1993,1995,1998,2003,2009,2013,
            Gaussian, Inc.  All Rights Reserved.
  
 This is part of the Gaussian(R) 09 program.  It is based on
 the Gaussian(R) 03 system (copyright 2003, Gaussian, Inc.),
 the Gaussian(R) 98 system (copyright 1998, Gaussian, Inc.),
 the Gaussian(R) 94 system (copyright 1995, Gaussian, Inc.),
 the Gaussian 92(TM) system (copyright 1992, Gaussian, Inc.),
 the Gaussian 90(TM) system (copyright 1990, Gaussian, Inc.),
 the Gaussian 88(TM) system (copyright 1988, Gaussian, Inc.),
 the Gaussian 86(TM) system (copyright 1986, Carnegie Mellon
 University), and the Gaussian 82(TM) system (copyright 1983,
 Carnegie Mellon University). Gaussian is a federally registered
 trademark of Gaussian, Inc.
  
 This software contains proprietary and confidential information,
 including trade secrets, belonging to Gaussian, Inc.
  
 This software is provided under written license and may be
 used, copied, transmitted, or stored only in accord with that
 written license.
  
 The following legend is applicable only to US Government
 contracts under FAR:
  
                    RESTRICTED RIGHTS LEGEND
  
 Use, reproduction and disclosure by the US Government is
 subject to restrictions as set forth in subparagraphs (a)
 and (c) of the Commercial Computer Software - Restricted
 Rights clause in FAR 52.227-19.
  
 Gaussian, Inc.
 340 Quinnipiac St., Bldg. 40, Wallingford CT 06492
  
  
 ---------------------------------------------------------------
 Warning -- This program may not be used in any manner that
 competes with the business of Gaussian, Inc. or will provide
 assistance to any competitor of Gaussian, Inc.  The licensee
 of this program is prohibited from giving any competitor of
 Gaussian, Inc. access to this program.  By using this program,
 the user acknowledges that Gaussian, Inc. is engaged in the
 business of creating and licensing software in the field of
 computational chemistry and represents and warrants to the
 licensee that it is not a competitor of Gaussian, Inc. and that
 it will not use this program in any manner prohibited above.
 ---------------------------------------------------------------
  

 Cite this work as:
 Gaussian 09, Revision D.01,
 M. J. Frisch, G. W. Trucks, H. B. Schlegel, G. E. Scuseria, 
 M. A. Robb, J. R. Cheeseman, G. Scalmani, V. Barone, B. Mennucci, 
 G. A. Petersson, H. Nakatsuji, M. Caricato, X. Li, H. P. Hratchian, 
 A. F. Izmaylov, J. Bloino, G. Zheng, J. L. Sonnenberg, M. Hada, 
 M. Ehara, K. Toyota, R. Fukuda, J. Hasegawa, M. Ishida, T. Nakajima, 
 Y. Honda, O. Kitao, H. Nakai, T. Vreven, J. A. Montgomery, Jr., 
 J. E. Peralta, F. Ogliaro, M. Bearpark, J. J. Heyd, E. Brothers, 
 K. N. Kudin, V. N. Staroverov, T. Keith, R. Kobayashi, J. Normand, 
 K. Raghavachari, A. Rendell, J. C. Burant, S. S. Iyengar, J. Tomasi, 
 M. Cossi, N. Rega, J. M. Millam, M. Klene, J. E. Knox, J. B. Cross, 
 V. Bakken, C. Adamo, J. Jaramillo, R. Gomperts, R. E. Stratmann, 
 O. Yazyev, A. J. Austin, R. Cammi, C. Pomelli, J. W. Ochterski, 
 R. L. Martin, K. Morokuma, V. G. Zakrzewski, G. A. Voth, 
 P. Salvador, J. J. Dannenberg, S. Dapprich, A. D. Daniels, 
 O. Farkas, J. B. Foresman, J. V. Ortiz, J. Cioslowski, 
 and D. J. Fox, Gaussian, Inc., Wallingford CT, 2013.
 
 ******************************************
 Gaussian 09:  AS64L-G09RevD.01 24-Apr-2013
                21-Jan-2014 
 ******************************************
 %chk=RuRh_CH3_CO2Cl_model2_PCM_CH3CN_Opt-TD
 %mem=24GB
 %nprocshared=24
 Will use up to   24 processors via shared memory.
 ----------------------------------------------------------------------
 #p b3lyp/gen pseudo=read nosymm scf(maxcycle=100,conver=6,xqc) iop(4/5
 =1,9/40=2) EmpiricalDispersion=GD3 scrf(solvent=Acetonitrile) td(nstat
 es=70) geom(allcheck)
 ----------------------------------------------------------------------
 1/29=7,38=1/1;
 2/12=2,15=1,40=1/2;
 3/5=7,11=9,14=-4,16=1,17=8,25=1,30=1,70=2201,72=2,74=-5,124=31/1,2,8,3;
 4/5=1/1;
 5/5=2,6=6,7=100,8=3,13=1,38=5,53=2/2,8;
 8/6=1,10=1,108=70/1;
 9/40=2,41=70,42=1,70=2/14;
 6/7=2,8=2,9=2,10=2/1;
 99/5=1,9=1/99;
 Leave Link    1 at Tue Jan 21 10:05:01 2014, MaxMem=  3221225472 cpu:         3.1
 (Enter /pkg/chem/gaussian/g09d01/g09/l101.exe)
 Structure from the checkpoint file:  "RuRh_CH3_CO2Cl_model2_PCM_CH3CN_Opt-TD.chk"
 -----------------------------
 RuRh_CH3_CO2Cl_model2 complex
 -----------------------------
 Charge =  2 Multiplicity = 1
 Redundant internal coordinates found in file.
 Ru,0,0.3377789517,-3.2427786238,-1.919464829
 N,0,1.288342609,-2.1909507215,-3.4640265542
 N,0,1.9664146292,-2.3941082498,-0.9160425211
 C,0,0.8716693798,-2.1441030351,-4.743812942
 C,0,1.551639299,-1.4321374225,-5.7265475105
 C,0,2.7110077179,-0.7403180169,-5.3719159112
 C,0,3.1476489442,-0.787266736,-4.0496114134
 C,0,2.4215050993,-1.5221217101,-3.106598327
 C,0,2.7975534136,-1.6317157879,-1.6829562461
 C,0,3.9226338117,-1.0156413173,-1.1254867287
 C,0,4.196868337,-1.1780598491,0.2308431691
 C,0,3.3367685597,-1.9572535024,1.0062802183
 C,0,2.2347571409,-2.5464724435,0.3950097134
 H,0,-0.0354705163,-2.6908866948,-4.9708418938
 H,0,1.1729620008,-1.4252360536,-6.7427896757
 H,0,3.2677229766,-0.1722416075,-6.1101855035
 H,0,4.0446319585,-0.2541630226,-3.7594234173
 H,0,4.5812536635,-0.4145381215,-1.7400933309
 H,0,5.0676022985,-0.7035991491,0.6717930428
 H,0,3.5086807771,-2.1119609838,2.0658623533
 H,0,1.54243154,-3.1631407166,0.9552300312
 N,0,-0.8761906237,-1.6706896071,-1.2586247612
 N,0,-0.5763724071,-4.0900827623,-0.2348055535
 C,0,-0.962503439,-0.4594279246,-1.8411170504
 C,0,-1.7940095988,0.5455178784,-1.3575132797
 C,0,-2.566833698,0.288610111,-0.2238848639
 C,0,-2.4783146581,-0.9614572554,0.384951036
 C,0,-1.6227139593,-1.9314443077,-0.1472300731
 C,0,-1.4593435361,-3.2842950114,0.4212088194
 C,0,-2.1401983016,-3.7402830609,1.5546851489
 C,0,-1.9173568042,-5.0351756701,2.0183851935
 C,0,-1.0136444891,-5.8518219463,1.3365880251
 C,0,-0.366024121,-5.3414281474,0.2162425217
 H,0,-0.3473652471,-0.30810467,-2.7198190713
 H,0,-1.8285713219,1.503571369,-1.8646065473
 H,0,-3.2285041685,1.0470149861,0.1819730975
 H,0,-3.0715902677,-1.1750556772,1.2656148024
 H,0,-2.8379569152,-3.0945071918,2.0732733284
 H,0,-2.4411721059,-5.3974091177,2.8970726506
 H,0,-0.8074302646,-6.866447984,1.6595083293
 H,0,0.3483419479,-5.9357843996,-0.340482081
 N,0,-1.1306082777,-4.1617935651,-3.1105120314
 N,0,1.3483754545,-4.9763450453,-2.5474873872
 C,0,-2.370301603,-3.7162096765,-3.3580471782
 C,0,-3.2713108121,-4.4227857236,-4.1620884162
 C,0,-2.8809908004,-5.6279219287,-4.7291206704
 C,0,-1.5855675254,-6.1133513265,-4.479206947
 C,0,-0.739268377,-5.347720389,-3.6583379204
 C,0,0.6095536658,-5.7861451951,-3.3587581911
 C,0,1.1134282375,-6.9900092565,-3.8808292216
 C,0,2.4300682162,-7.3550386083,-3.5502389565
 C,0,3.1754097164,-6.5210592732,-2.7287228731
 C,0,2.6027806254,-5.3394199316,-2.2453550479
 H,0,-2.6400742243,-2.7694414187,-2.9050169556
 H,0,-4.2625626453,-4.0170932935,-4.3321295762
 H,0,-3.5537112064,-6.198699851,-5.359054887
 H,0,2.8426416117,-8.2787132252,-3.9397800201
 H,0,4.1945541345,-6.7689990438,-2.4529690345
 H,0,3.1550106635,-4.6694574562,-1.5969905945
 C,0,-1.0863491886,-7.3721050544,-5.0369191957
 C,0,0.2539796354,-7.8068016362,-4.7401764531
 C,0,-1.4151580956,-9.247087269,-6.3254730162
 C,0,-0.0642067268,-9.6853475719,-6.0254350427
 N,0,0.7359832008,-8.9397780483,-5.2306833666
 N,0,-1.8877780909,-8.0888126658,-5.8122992887
 C,0,0.4408635962,-10.8991279609,-6.5617840079
 C,0,-2.2601618006,-10.0234147711,-7.1625209421
 C,0,-1.7335343408,-11.1893386796,-7.6649926466
 C,0,-0.4065589323,-11.619885964,-7.3686094735
 C,0,-1.36417504,-13.1490918748,-8.7333690065
 C,0,1.0027062362,-13.5983222333,-8.0049592956
 H,0,1.8222403623,-13.0065813438,-8.4223778335
 H,0,1.232188369,-13.8684313105,-6.97052299
 H,0,0.8675304311,-14.503711735,-8.5969711251
 C,0,-3.6299512669,-12.0959498762,-9.0392678307
 H,0,-3.7470856527,-11.183841105,-9.6311577085
 H,0,-3.7916453259,-12.9685713432,-9.6714369377
 H,0,-4.3506509377,-12.0964560824,-8.2167716494
 H,0,-3.2670218571,-9.6836449529,-7.3772340925
 H,0,1.4521998391,-11.2127105632,-6.3289493383
 N,0,-2.2727834682,-12.1609509248,-8.5025552691
 N,0,-0.2345380828,-12.8225158488,-8.0452135874
 Rh,0,-1.5928524865,-14.8010279079,-9.870913539
 C,0,-2.5794293937,-15.6565246235,-8.4403235609
 C,0,-1.2693460736,-13.7538427826,-11.4692777729
 O,0,-1.1996518139,-13.1232607093,-12.4264863281
 O,0,-3.2656766598,-16.1251571444,-7.6476431034
 Cl,0,-1.6804930825,-16.8646311049,-11.2028185144
 Recover connectivity data from disk.
 NAtoms=     88 NQM=       88 NQMF=       0 NMMI=      0 NMMIF=      0
                NMic=       0 NMicF=      0.
                    Isotopes and Nuclear Properties:
 (Nuclear quadrupole moments (NQMom) in fm**2, nuclear magnetic moments (NMagM)
  in nuclear magnetons)

  Atom         1           2           3           4           5           6           7           8           9          10
 IAtWgt=         102          14          14          12          12          12          12          12          12          12
 AtmWgt= 101.9037000  14.0030740  14.0030740  12.0000000  12.0000000  12.0000000  12.0000000  12.0000000  12.0000000  12.0000000
 NucSpn=           0           2           2           0           0           0           0           0           0           0
 AtZEff=-221.7600000  -4.5500000  -4.5500000  -3.6000000  -3.6000000  -3.6000000  -3.6000000  -3.6000000  -3.6000000  -3.6000000
 NQMom=    0.0000000   2.0440000   2.0440000   0.0000000   0.0000000   0.0000000   0.0000000   0.0000000   0.0000000   0.0000000
 NMagM=    0.0000000   0.4037610   0.4037610   0.0000000   0.0000000   0.0000000   0.0000000   0.0000000   0.0000000   0.0000000
 AtZNuc=  44.0000000   7.0000000   7.0000000   6.0000000   6.0000000   6.0000000   6.0000000   6.0000000   6.0000000   6.0000000

  Atom        11          12          13          14          15          16          17          18          19          20
 IAtWgt=          12          12          12           1           1           1           1           1           1           1
 AtmWgt=  12.0000000  12.0000000  12.0000000   1.0078250   1.0078250   1.0078250   1.0078250   1.0078250   1.0078250   1.0078250
 NucSpn=           0           0           0           1           1           1           1           1           1           1
 AtZEff=  -3.6000000  -3.6000000  -3.6000000  -1.0000000  -1.0000000  -1.0000000  -1.0000000  -1.0000000  -1.0000000  -1.0000000
 NQMom=    0.0000000   0.0000000   0.0000000   0.0000000   0.0000000   0.0000000   0.0000000   0.0000000   0.0000000   0.0000000
 NMagM=    0.0000000   0.0000000   0.0000000   2.7928460   2.7928460   2.7928460   2.7928460   2.7928460   2.7928460   2.7928460
 AtZNuc=   6.0000000   6.0000000   6.0000000   1.0000000   1.0000000   1.0000000   1.0000000   1.0000000   1.0000000   1.0000000

  Atom        21          22          23          24          25          26          27          28          29          30
 IAtWgt=           1          14          14          12          12          12          12          12          12          12
 AtmWgt=   1.0078250  14.0030740  14.0030740  12.0000000  12.0000000  12.0000000  12.0000000  12.0000000  12.0000000  12.0000000
 NucSpn=           1           2           2           0           0           0           0           0           0           0
 AtZEff=  -1.0000000  -4.5500000  -4.5500000  -3.6000000  -3.6000000  -3.6000000  -3.6000000  -3.6000000  -3.6000000  -3.6000000
 NQMom=    0.0000000   2.0440000   2.0440000   0.0000000   0.0000000   0.0000000   0.0000000   0.0000000   0.0000000   0.0000000
 NMagM=    2.7928460   0.4037610   0.4037610   0.0000000   0.0000000   0.0000000   0.0000000   0.0000000   0.0000000   0.0000000
 AtZNuc=   1.0000000   7.0000000   7.0000000   6.0000000   6.0000000   6.0000000   6.0000000   6.0000000   6.0000000   6.0000000

  Atom        31          32          33          34          35          36          37          38          39          40
 IAtWgt=          12          12          12           1           1           1           1           1           1           1
 AtmWgt=  12.0000000  12.0000000  12.0000000   1.0078250   1.0078250   1.0078250   1.0078250   1.0078250   1.0078250   1.0078250
 NucSpn=           0           0           0           1           1           1           1           1           1           1
 AtZEff=  -3.6000000  -3.6000000  -3.6000000  -1.0000000  -1.0000000  -1.0000000  -1.0000000  -1.0000000  -1.0000000  -1.0000000
 NQMom=    0.0000000   0.0000000   0.0000000   0.0000000   0.0000000   0.0000000   0.0000000   0.0000000   0.0000000   0.0000000
 NMagM=    0.0000000   0.0000000   0.0000000   2.7928460   2.7928460   2.7928460   2.7928460   2.7928460   2.7928460   2.7928460
 AtZNuc=   6.0000000   6.0000000   6.0000000   1.0000000   1.0000000   1.0000000   1.0000000   1.0000000   1.0000000   1.0000000

  Atom        41          42          43          44          45          46          47          48          49          50
 IAtWgt=           1          14          14          12          12          12          12          12          12          12
 AtmWgt=   1.0078250  14.0030740  14.0030740  12.0000000  12.0000000  12.0000000  12.0000000  12.0000000  12.0000000  12.0000000
 NucSpn=           1           2           2           0           0           0           0           0           0           0
 AtZEff=  -1.0000000  -4.5500000  -4.5500000  -3.6000000  -3.6000000  -3.6000000  -3.6000000  -3.6000000  -3.6000000  -3.6000000
 NQMom=    0.0000000   2.0440000   2.0440000   0.0000000   0.0000000   0.0000000   0.0000000   0.0000000   0.0000000   0.0000000
 NMagM=    2.7928460   0.4037610   0.4037610   0.0000000   0.0000000   0.0000000   0.0000000   0.0000000   0.0000000   0.0000000
 AtZNuc=   1.0000000   7.0000000   7.0000000   6.0000000   6.0000000   6.0000000   6.0000000   6.0000000   6.0000000   6.0000000

  Atom        51          52          53          54          55          56          57          58          59          60
 IAtWgt=          12          12          12           1           1           1           1           1           1          12
 AtmWgt=  12.0000000  12.0000000  12.0000000   1.0078250   1.0078250   1.0078250   1.0078250   1.0078250   1.0078250  12.0000000
 NucSpn=           0           0           0           1           1           1           1           1           1           0
 AtZEff=  -3.6000000  -3.6000000  -3.6000000  -1.0000000  -1.0000000  -1.0000000  -1.0000000  -1.0000000  -1.0000000  -3.6000000
 NQMom=    0.0000000   0.0000000   0.0000000   0.0000000   0.0000000   0.0000000   0.0000000   0.0000000   0.0000000   0.0000000
 NMagM=    0.0000000   0.0000000   0.0000000   2.7928460   2.7928460   2.7928460   2.7928460   2.7928460   2.7928460   0.0000000
 AtZNuc=   6.0000000   6.0000000   6.0000000   1.0000000   1.0000000   1.0000000   1.0000000   1.0000000   1.0000000   6.0000000

  Atom        61          62          63          64          65          66          67          68          69          70
 IAtWgt=          12          12          12          14          14          12          12          12          12          12
 AtmWgt=  12.0000000  12.0000000  12.0000000  14.0030740  14.0030740  12.0000000  12.0000000  12.0000000  12.0000000  12.0000000
 NucSpn=           0           0           0           2           2           0           0           0           0           0
 AtZEff=  -3.6000000  -3.6000000  -3.6000000  -4.5500000  -4.5500000  -3.6000000  -3.6000000  -3.6000000  -3.6000000  -3.6000000
 NQMom=    0.0000000   0.0000000   0.0000000   2.0440000   2.0440000   0.0000000   0.0000000   0.0000000   0.0000000   0.0000000
 NMagM=    0.0000000   0.0000000   0.0000000   0.4037610   0.4037610   0.0000000   0.0000000   0.0000000   0.0000000   0.0000000
 AtZNuc=   6.0000000   6.0000000   6.0000000   7.0000000   7.0000000   6.0000000   6.0000000   6.0000000   6.0000000   6.0000000

  Atom        71          72          73          74          75          76          77          78          79          80
 IAtWgt=          12           1           1           1          12           1           1           1           1           1
 AtmWgt=  12.0000000   1.0078250   1.0078250   1.0078250  12.0000000   1.0078250   1.0078250   1.0078250   1.0078250   1.0078250
 NucSpn=           0           1           1           1           0           1           1           1           1           1
 AtZEff=  -3.6000000  -1.0000000  -1.0000000  -1.0000000  -3.6000000  -1.0000000  -1.0000000  -1.0000000  -1.0000000  -1.0000000
 NQMom=    0.0000000   0.0000000   0.0000000   0.0000000   0.0000000   0.0000000   0.0000000   0.0000000   0.0000000   0.0000000
 NMagM=    0.0000000   2.7928460   2.7928460   2.7928460   0.0000000   2.7928460   2.7928460   2.7928460   2.7928460   2.7928460
 AtZNuc=   6.0000000   1.0000000   1.0000000   1.0000000   6.0000000   1.0000000   1.0000000   1.0000000   1.0000000   1.0000000

  Atom        81          82          83          84          85          86          87          88
 IAtWgt=          14          14         103          12          12          16          16          35
 AtmWgt=  14.0030740  14.0030740 102.9048000  12.0000000  12.0000000  15.9949146  15.9949146  34.9688527
 NucSpn=           2           2           1           0           0           0           0           3
 AtZEff=  -4.5500000  -4.5500000-229.5000000  -3.6000000  -3.6000000  -5.6000000  -5.6000000 -14.2400000
 NQMom=    2.0440000   2.0440000   0.0000000   0.0000000   0.0000000   0.0000000   0.0000000  -8.1650000
 NMagM=    0.4037610   0.4037610  -0.0884000   0.0000000   0.0000000   0.0000000   0.0000000   0.8218740
 AtZNuc=   7.0000000   7.0000000  45.0000000   6.0000000   6.0000000   8.0000000   8.0000000  17.0000000
 Leave Link  101 at Tue Jan 21 10:05:02 2014, MaxMem=  3221225472 cpu:        21.6
 (Enter /pkg/chem/gaussian/g09d01/g09/l202.exe)
 Symmetry turned off by external request.
 Stoichiometry    C43H30ClN10O2RhRu(2+)
 Framework group  C1[X(C43H30ClN10O2RhRu)]
 Deg. of freedom   258
 Full point group                 C1      NOp   1
                          Input orientation:                          
 ---------------------------------------------------------------------
 Center     Atomic      Atomic             Coordinates (Angstroms)
 Number     Number       Type             X           Y           Z
 ---------------------------------------------------------------------
      1         44           0        0.337779   -3.242779   -1.919465
      2          7           0        1.288343   -2.190951   -3.464027
      3          7           0        1.966415   -2.394108   -0.916043
      4          6           0        0.871669   -2.144103   -4.743813
      5          6           0        1.551639   -1.432137   -5.726548
      6          6           0        2.711008   -0.740318   -5.371916
      7          6           0        3.147649   -0.787267   -4.049611
      8          6           0        2.421505   -1.522122   -3.106598
      9          6           0        2.797553   -1.631716   -1.682956
     10          6           0        3.922634   -1.015641   -1.125487
     11          6           0        4.196868   -1.178060    0.230843
     12          6           0        3.336769   -1.957254    1.006280
     13          6           0        2.234757   -2.546472    0.395010
     14          1           0       -0.035471   -2.690887   -4.970842
     15          1           0        1.172962   -1.425236   -6.742790
     16          1           0        3.267723   -0.172242   -6.110186
     17          1           0        4.044632   -0.254163   -3.759423
     18          1           0        4.581254   -0.414538   -1.740093
     19          1           0        5.067602   -0.703599    0.671793
     20          1           0        3.508681   -2.111961    2.065862
     21          1           0        1.542432   -3.163141    0.955230
     22          7           0       -0.876191   -1.670690   -1.258625
     23          7           0       -0.576372   -4.090083   -0.234806
     24          6           0       -0.962503   -0.459428   -1.841117
     25          6           0       -1.794010    0.545518   -1.357513
     26          6           0       -2.566834    0.288610   -0.223885
     27          6           0       -2.478315   -0.961457    0.384951
     28          6           0       -1.622714   -1.931444   -0.147230
     29          6           0       -1.459344   -3.284295    0.421209
     30          6           0       -2.140198   -3.740283    1.554685
     31          6           0       -1.917357   -5.035176    2.018385
     32          6           0       -1.013644   -5.851822    1.336588
     33          6           0       -0.366024   -5.341428    0.216243
     34          1           0       -0.347365   -0.308105   -2.719819
     35          1           0       -1.828571    1.503571   -1.864607
     36          1           0       -3.228504    1.047015    0.181973
     37          1           0       -3.071590   -1.175056    1.265615
     38          1           0       -2.837957   -3.094507    2.073273
     39          1           0       -2.441172   -5.397409    2.897073
     40          1           0       -0.807430   -6.866448    1.659508
     41          1           0        0.348342   -5.935784   -0.340482
     42          7           0       -1.130608   -4.161794   -3.110512
     43          7           0        1.348375   -4.976345   -2.547487
     44          6           0       -2.370302   -3.716210   -3.358047
     45          6           0       -3.271311   -4.422786   -4.162088
     46          6           0       -2.880991   -5.627922   -4.729121
     47          6           0       -1.585568   -6.113351   -4.479207
     48          6           0       -0.739268   -5.347720   -3.658338
     49          6           0        0.609554   -5.786145   -3.358758
     50          6           0        1.113428   -6.990009   -3.880829
     51          6           0        2.430068   -7.355039   -3.550239
     52          6           0        3.175410   -6.521059   -2.728723
     53          6           0        2.602781   -5.339420   -2.245355
     54          1           0       -2.640074   -2.769441   -2.905017
     55          1           0       -4.262563   -4.017093   -4.332130
     56          1           0       -3.553711   -6.198700   -5.359055
     57          1           0        2.842642   -8.278713   -3.939780
     58          1           0        4.194554   -6.768999   -2.452969
     59          1           0        3.155011   -4.669457   -1.596991
     60          6           0       -1.086349   -7.372105   -5.036919
     61          6           0        0.253980   -7.806802   -4.740176
     62          6           0       -1.415158   -9.247087   -6.325473
     63          6           0       -0.064207   -9.685348   -6.025435
     64          7           0        0.735983   -8.939778   -5.230683
     65          7           0       -1.887778   -8.088813   -5.812299
     66          6           0        0.440864  -10.899128   -6.561784
     67          6           0       -2.260162  -10.023415   -7.162521
     68          6           0       -1.733534  -11.189339   -7.664993
     69          6           0       -0.406559  -11.619886   -7.368609
     70          6           0       -1.364175  -13.149092   -8.733369
     71          6           0        1.002706  -13.598322   -8.004959
     72          1           0        1.822240  -13.006581   -8.422378
     73          1           0        1.232188  -13.868431   -6.970523
     74          1           0        0.867530  -14.503712   -8.596971
     75          6           0       -3.629951  -12.095950   -9.039268
     76          1           0       -3.747086  -11.183841   -9.631158
     77          1           0       -3.791645  -12.968571   -9.671437
     78          1           0       -4.350651  -12.096456   -8.216772
     79          1           0       -3.267022   -9.683645   -7.377234
     80          1           0        1.452200  -11.212711   -6.328949
     81          7           0       -2.272783  -12.160951   -8.502555
     82          7           0       -0.234538  -12.822516   -8.045214
     83         45           0       -1.592852  -14.801028   -9.870914
     84          6           0       -2.579429  -15.656525   -8.440324
     85          6           0       -1.269346  -13.753843  -11.469278
     86          8           0       -1.199652  -13.123261  -12.426486
     87          8           0       -3.265677  -16.125157   -7.647643
     88         17           0       -1.680493  -16.864631  -11.202819
 ---------------------------------------------------------------------
 Rotational constants (GHZ):      0.1015009      0.0122961      0.0120460
 Leave Link  202 at Tue Jan 21 10:05:02 2014, MaxMem=  3221225472 cpu:         0.1
 (Enter /pkg/chem/gaussian/g09d01/g09/l301.exe)
 General basis read from cards:  (5D, 7F)
 Centers:      14     15     16     17     18     19     20     21     34     35
 Centers:      36     37     38     39     40     41     54     55     56     57
 Centers:      58     59     72     73     74     76     77     78     79     80
 Centers:       4      5      6      7      8      9     10     11     12     13
 Centers:      24     25     26     27     28     29     30     31     32     33
 Centers:      44     45     46     47     48     49     50     51     52     53
 Centers:      60     61     62     63     66     67     68     69     70     71
 Centers:      75     84     85      2      3     22     23     42     43     64
 Centers:      65     81     82     86     87     88
 6-31+(d)
 ****
 Centers:       1
 S 1 1.00
     Exponent=  2.5650000000D+00 Coefficients=  1.0000000000D+00
 S 1 1.00
     Exponent=  1.5080000000D+00 Coefficients=  1.0000000000D+00
 S 1 1.00
     Exponent=  5.1290000000D-01 Coefficients=  1.0000000000D+00
 S 1 1.00
     Exponent=  1.3620000000D-01 Coefficients=  1.0000000000D+00
 S 1 1.00
     Exponent=  4.1700000000D-02 Coefficients=  1.0000000000D+00
 P 1 1.00
     Exponent=  4.8590000000D+00 Coefficients=  1.0000000000D+00
 P 1 1.00
     Exponent=  1.2190000000D+00 Coefficients=  1.0000000000D+00
 P 1 1.00
     Exponent=  4.4130000000D-01 Coefficients=  1.0000000000D+00
 P 1 1.00
     Exponent=  8.3000000000D-02 Coefficients=  1.0000000000D+00
 P 1 1.00
     Exponent=  2.5000000000D-02 Coefficients=  1.0000000000D+00
 D 1 1.00
     Exponent=  4.1950000000D+00 Coefficients=  1.0000000000D+00
 D 1 1.00
     Exponent=  1.3770000000D+00 Coefficients=  1.0000000000D+00
 D 1 1.00
     Exponent=  4.8280000000D-01 Coefficients=  1.0000000000D+00
 D 1 1.00
     Exponent=  1.5010000000D-01 Coefficients=  1.0000000000D+00
 ****
 Centers:      83
 S 1 1.00
     Exponent=  2.6460000000D+00 Coefficients=  1.0000000000D+00
 S 1 1.00
     Exponent=  1.7510000000D+00 Coefficients=  1.0000000000D+00
 S 1 1.00
     Exponent=  5.7130000000D-01 Coefficients=  1.0000000000D+00
 S 1 1.00
     Exponent=  1.4380000000D-01 Coefficients=  1.0000000000D+00
 S 1 1.00
     Exponent=  4.2800000000D-02 Coefficients=  1.0000000000D+00
 P 1 1.00
     Exponent=  5.4400000000D+00 Coefficients=  1.0000000000D+00
 P 1 1.00
     Exponent=  1.3290000000D+00 Coefficients=  1.0000000000D+00
 P 1 1.00
     Exponent=  4.8450000000D-01 Coefficients=  1.0000000000D+00
 P 1 1.00
     Exponent=  8.6900000000D-02 Coefficients=  1.0000000000D+00
 P 1 1.00
     Exponent=  2.5700000000D-02 Coefficients=  1.0000000000D+00
 D 1 1.00
     Exponent=  3.6690000000D+00 Coefficients=  1.0000000000D+00
 D 1 1.00
     Exponent=  1.4230000000D+00 Coefficients=  1.0000000000D+00
 D 1 1.00
     Exponent=  5.0910000000D-01 Coefficients=  1.0000000000D+00
 D 1 1.00
     Exponent=  1.6100000000D-01 Coefficients=  1.0000000000D+00
 ****
 ======================================================================================================
                                       Pseudopotential Parameters
 ======================================================================================================
  Center     Atomic      Valence      Angular      Power
  Number     Number     Electrons     Momentum     of R      Exponent        Coefficient   SO-Coeffient
 ======================================================================================================
    1         44           16
                                      F and up 
                                                     0      554.3796303       -0.05152700    0.00000000
                                                     1      155.1066871      -20.18165360    0.00000000
                                                     2       48.4976263     -105.99669150    0.00000000
                                                     2       14.7701594      -42.21667880    0.00000000
                                                     2        5.2077363       -3.76750240    0.00000000
                                      S - F
                                                     0       66.7118060        2.95783440    0.00000000
                                                     1       77.3503632       25.37487070    0.00000000
                                                     2       18.3571445      536.12623720    0.00000000
                                                     2       11.8404727     -651.20572210    0.00000000
                                                     2        8.1179479      381.38169430    0.00000000
                                      P - F
                                                     0       54.9937915        4.96515570    0.00000000
                                                     1       13.9399212       23.88615010    0.00000000
                                                     2       15.2118246      464.46313440    0.00000000
                                                     2       10.5460691     -714.44517880    0.00000000
                                                     2        7.5539486      377.55035940    0.00000000
                                      D - F
                                                     0       60.3444595        3.03529880    0.00000000
                                                     1       45.2100305       23.29017230    0.00000000
                                                     2       19.1190074      146.09266200    0.00000000
                                                     2        4.2712090       28.91297700    0.00000000
    2          7
                                   No pseudopotential on this center.
    3          7
                                   No pseudopotential on this center.
    4          6
                                   No pseudopotential on this center.
    5          6
                                   No pseudopotential on this center.
    6          6
                                   No pseudopotential on this center.
    7          6
                                   No pseudopotential on this center.
    8          6
                                   No pseudopotential on this center.
    9          6
                                   No pseudopotential on this center.
   10          6
                                   No pseudopotential on this center.
   11          6
                                   No pseudopotential on this center.
   12          6
                                   No pseudopotential on this center.
   13          6
                                   No pseudopotential on this center.
   14          1
                                   No pseudopotential on this center.
   15          1
                                   No pseudopotential on this center.
   16          1
                                   No pseudopotential on this center.
   17          1
                                   No pseudopotential on this center.
   18          1
                                   No pseudopotential on this center.
   19          1
                                   No pseudopotential on this center.
   20          1
                                   No pseudopotential on this center.
   21          1
                                   No pseudopotential on this center.
   22          7
                                   No pseudopotential on this center.
   23          7
                                   No pseudopotential on this center.
   24          6
                                   No pseudopotential on this center.
   25          6
                                   No pseudopotential on this center.
   26          6
                                   No pseudopotential on this center.
   27          6
                                   No pseudopotential on this center.
   28          6
                                   No pseudopotential on this center.
   29          6
                                   No pseudopotential on this center.
   30          6
                                   No pseudopotential on this center.
   31          6
                                   No pseudopotential on this center.
   32          6
                                   No pseudopotential on this center.
   33          6
                                   No pseudopotential on this center.
   34          1
                                   No pseudopotential on this center.
   35          1
                                   No pseudopotential on this center.
   36          1
                                   No pseudopotential on this center.
   37          1
                                   No pseudopotential on this center.
   38          1
                                   No pseudopotential on this center.
   39          1
                                   No pseudopotential on this center.
   40          1
                                   No pseudopotential on this center.
   41          1
                                   No pseudopotential on this center.
   42          7
                                   No pseudopotential on this center.
   43          7
                                   No pseudopotential on this center.
   44          6
                                   No pseudopotential on this center.
   45          6
                                   No pseudopotential on this center.
   46          6
                                   No pseudopotential on this center.
   47          6
                                   No pseudopotential on this center.
   48          6
                                   No pseudopotential on this center.
   49          6
                                   No pseudopotential on this center.
   50          6
                                   No pseudopotential on this center.
   51          6
                                   No pseudopotential on this center.
   52          6
                                   No pseudopotential on this center.
   53          6
                                   No pseudopotential on this center.
   54          1
                                   No pseudopotential on this center.
   55          1
                                   No pseudopotential on this center.
   56          1
                                   No pseudopotential on this center.
   57          1
                                   No pseudopotential on this center.
   58          1
                                   No pseudopotential on this center.
   59          1
                                   No pseudopotential on this center.
   60          6
                                   No pseudopotential on this center.
   61          6
                                   No pseudopotential on this center.
   62          6
                                   No pseudopotential on this center.
   63          6
                                   No pseudopotential on this center.
   64          7
                                   No pseudopotential on this center.
   65          7
                                   No pseudopotential on this center.
   66          6
                                   No pseudopotential on this center.
   67          6
                                   No pseudopotential on this center.
   68          6
                                   No pseudopotential on this center.
   69          6
                                   No pseudopotential on this center.
   70          6
                                   No pseudopotential on this center.
   71          6
                                   No pseudopotential on this center.
   72          1
                                   No pseudopotential on this center.
   73          1
                                   No pseudopotential on this center.
   74          1
                                   No pseudopotential on this center.
   75          6
                                   No pseudopotential on this center.
   76          1
                                   No pseudopotential on this center.
   77          1
                                   No pseudopotential on this center.
   78          1
                                   No pseudopotential on this center.
   79          1
                                   No pseudopotential on this center.
   80          1
                                   No pseudopotential on this center.
   81          7
                                   No pseudopotential on this center.
   82          7
                                   No pseudopotential on this center.
   83         45           17
                                      F and up 
                                                     0      600.3243032       -0.05389580    0.00000000
                                                     1      157.6910176      -20.13162820    0.00000000
                                                     2       49.8841995     -105.36541210    0.00000000
                                                     2       15.5966895      -42.32743700    0.00000000
                                                     2        5.5099296       -3.66540430    0.00000000
                                      S - F
                                                     0       59.3442526        2.97537280    0.00000000
                                                     1       83.7426061       25.12303060    0.00000000
                                                     2       18.4530248      626.09261450    0.00000000
                                                     2       12.4194606     -812.25493850    0.00000000
                                                     2        8.8172913      467.37293400    0.00000000
                                      P - F
                                                     0       53.4309068        4.95372130    0.00000000
                                                     1       65.6671843       20.48711160    0.00000000
                                                     2       16.8369862      598.01201390    0.00000000
                                                     2       11.3042136     -718.40590280    0.00000000
                                                     2        8.0312444      382.81731510    0.00000000
                                      D - F
                                                     0       64.3993653        3.02795320    0.00000000
                                                     1       43.4625053       24.75265160    0.00000000
                                                     2       19.4020301      142.68442890    0.00000000
                                                     2        4.6879328       32.14068570    0.00000000
   84          6
                                   No pseudopotential on this center.
   85          6
                                   No pseudopotential on this center.
   86          8
                                   No pseudopotential on this center.
   87          8
                                   No pseudopotential on this center.
   88         17
                                   No pseudopotential on this center.
 ======================================================================================================
 Ernie: Thresh=  0.10000D-02 Tol=  0.10000D-05 Strict=F.
  1152 basis functions,  2024 primitive gaussians,  1216 cartesian basis functions
   211 alpha electrons      211 beta electrons
       nuclear repulsion energy      8379.6423914549 Hartrees.
 IExCor=  402 DFT=T Ex+Corr=B3LYP ExCW=0 ScaHFX=  0.200000
 ScaDFX=  0.800000  0.720000  1.000000  0.810000 ScalE2=  1.000000  1.000000
 IRadAn=      0 IRanWt=     -1 IRanGd=            0 ICorTp=0 IEmpDi=131
 NAtoms=   88 NActive=   88 NUniq=   88 SFac= 1.00D+00 NAtFMM=   60 NAOKFM=T Big=T
 Integral buffers will be    131072 words long.
 Regular integral format.
 Two-electron integral symmetry is turned off.
 R6Disp:  Grimme-D3 Dispersion energy=       -0.1234379480 Hartrees.
 Nuclear repulsion after empirical dispersion term =     8379.5189535069 Hartrees.
 ------------------------------------------------------------------------------
 Polarizable Continuum Model (PCM)
 =================================
 Model                : PCM (using non-symmetric T matrix).
 Atomic radii         : UFF (Universal Force Field).
 Polarization charges : Total charges.
 Charge compensation  : None.
 Solution method      : On-the-fly selection.
 Cavity type          : Scaled VdW (van der Waals Surface) (Alpha=1.100).
 Cavity algorithm     : GePol (No added spheres)
                        Default sphere list used, NSphG=   88.
                        Lebedev-Laikov grids with approx.  5.0 points / Ang**2.
                        Smoothing algorithm: Karplus/York (Gamma=1.0000).
                        Polarization charges: spherical gaussians, with
                                              point-specific exponents (IZeta= 3).
                        Self-potential: point-specific (ISelfS= 7).
                        Self-field    : sphere-specific E.n sum rule (ISelfD= 2).
 Solvent              : Acetonitrile, Eps=  35.688000 Eps(inf)=   1.806874
 ------------------------------------------------------------------------------
 GePol: Number of generator spheres                  =      88
 GePol: Total number of spheres                      =      88
 GePol: Number of exposed spheres                    =      87 ( 98.86%)
 GePol: Number of points                             =    6336
 GePol: Average weight of points                     =       0.13
 GePol: Minimum weight of points                     =   0.36D-11
 GePol: Maximum weight of points                     =    0.21616
 GePol: Number of points with low weight             =     413
 GePol: Fraction of low-weight points (<1% of avg)   =       6.52%
 GePol: Cavity surface area                          =    827.172 Ang**2
 GePol: Cavity volume                                =    998.748 Ang**3
 Leave Link  301 at Tue Jan 21 10:05:03 2014, MaxMem=  3221225472 cpu:         5.5
 (Enter /pkg/chem/gaussian/g09d01/g09/l302.exe)
 NPDir=0 NMtPBC=     1 NCelOv=     1 NCel=       1 NClECP=     1 NCelD=      1
         NCelK=      1 NCelE2=     1 NClLst=     1 CellRange=     0.0.
 One-electron integrals computed using PRISM.
   1 Symmetry operations used in ECPInt.
 ECPInt:  NShTT=   68265 NPrTT=  342664 LenC2=   48372 LenP2D=  133555.
 LDataN:  DoStor=T MaxTD1= 5 Len=  102
 Error in orthogonal basis= 6.47D-09 with  1134 functions, increasing threshold to 2.00D-06.
 NBasis=  1152 RedAO= T EigKep=  2.37D-06  NBF=  1152
 NBsUse=  1129 2.00D-06 EigRej=  1.82D-06 NBFU=  1129
 Precomputing XC quadrature grid using
 IXCGrd= 4 IRadAn=           0 IRanWt=          -1 IRanGd=           0 AccXCQ= 0.00D+00.
 Defaulting to unpruned grid for atomic number  44.
 Defaulting to unpruned grid for atomic number  45.
 Generated NRdTot=       0 NPtTot=           0 NUsed=           0 NTot=          32
 NSgBfM=  1087  1087  1087  1091  1097 MxSgAt=    88 MxSgA2=    88.
 Leave Link  302 at Tue Jan 21 10:05:20 2014, MaxMem=  3221225472 cpu:       407.3
 (Enter /pkg/chem/gaussian/g09d01/g09/l308.exe)
 Leave Link  308 at Tue Jan 21 10:05:21 2014, MaxMem=  3221225472 cpu:        23.7
 (Enter /pkg/chem/gaussian/g09d01/g09/l303.exe)
 DipDrv:  MaxL=1.
 Leave Link  303 at Tue Jan 21 10:05:22 2014, MaxMem=  3221225472 cpu:        17.8
 (Enter /pkg/chem/gaussian/g09d01/g09/l401.exe)
 Initial guess from the checkpoint file:  "RuRh_CH3_CO2Cl_model2_PCM_CH3CN_Opt-TD.chk"
 B after Tr=     0.000000    0.000000    0.000000
         Rot=    1.000000    0.000000    0.000000    0.000000 Ang=   0.00 deg.
 Guess basis will be translated and rotated to current coordinates.
 JPrj=2 DoOrth=T DoCkMO=T.
 Leave Link  401 at Tue Jan 21 10:05:59 2014, MaxMem=  3221225472 cpu:       896.7
 (Enter /pkg/chem/gaussian/g09d01/g09/l502.exe)
 Closed shell SCF:
 Using DIIS extrapolation, IDIIS=  1040.
 Two-electron integral symmetry not used.
 IVT=     4484650 IEndB=     4484650 NGot=  3221225472 MDV=  3218230895
 LenX=  3218230895 LenY=  3216751023
 Requested convergence on RMS density matrix=1.00D-06 within 100 cycles.
 Requested convergence on MAX density matrix=1.00D-04.
 Requested convergence on             energy=1.00D-04.
 No special actions if energy rises.
 Fock matrices will be formed incrementally for  20 cycles.

 Cycle   1  Pass 1  IDiag  1:
 FoFJK:  IHMeth= 1 ICntrl=       0 DoSepK=F KAlg= 0 I1Cent=   0 FoldK=F
 IRaf= 770000000 NMat=   1 IRICut=       1 DoRegI=T DoRafI=F ISym2E= 0.
 FoFCou: FMM=T IPFlag=           0 FMFlag=      100000 FMFlg1=        2001
         NFxFlg=           0 DoJE=F BraDBF=F KetDBF=F FulRan=T
         wScrn=  0.000000 ICntrl=       0 IOpCl=  0 I1Cent=           0 NGrid=           0
         NMat0=    1 NMatS0=      1 NMatT0=    0 NMatD0=    1 NMtDS0=    0 NMtDT0=    0
 Symmetry not used in FoFCou.
 FMM levels:  10  Number of levels for PrismC:   9
 Defaulting to unpruned grid for atomic number  44.
 Defaulting to unpruned grid for atomic number  44.
 Defaulting to unpruned grid for atomic number  44.
 Defaulting to unpruned grid for atomic number  44.
 Defaulting to unpruned grid for atomic number  44.
 Defaulting to unpruned grid for atomic number  44.
 Defaulting to unpruned grid for atomic number  44.
 Defaulting to unpruned grid for atomic number  44.
 Defaulting to unpruned grid for atomic number  44.
 Defaulting to unpruned grid for atomic number  44.
 Defaulting to unpruned grid for atomic number  44.
 Defaulting to unpruned grid for atomic number  44.
 Defaulting to unpruned grid for atomic number  44.
 Defaulting to unpruned grid for atomic number  44.
 Defaulting to unpruned grid for atomic number  44.
 Defaulting to unpruned grid for atomic number  44.
 Defaulting to unpruned grid for atomic number  44.
 Defaulting to unpruned grid for atomic number  44.
 Defaulting to unpruned grid for atomic number  44.
 Defaulting to unpruned grid for atomic number  44.
 Defaulting to unpruned grid for atomic number  44.
 Defaulting to unpruned grid for atomic number  44.
 Defaulting to unpruned grid for atomic number  44.
 Defaulting to unpruned grid for atomic number  44.
 Inv3:  Mode=1 IEnd=   120434688.
 Iteration    1 A*A^-1 deviation from unit magnitude is 6.55D-15 for   6324.
 Iteration    1 A*A^-1 deviation from orthogonality  is 3.46D-15 for   3672   1504.
 Iteration    1 A^-1*A deviation from unit magnitude is 6.33D-15 for   6324.
 Iteration    1 A^-1*A deviation from orthogonality  is 1.52D-10 for   4596   4552.
 Iteration    2 A*A^-1 deviation from unit magnitude is 4.22D-15 for    609.
 Iteration    2 A*A^-1 deviation from orthogonality  is 4.30D-15 for   4552   1728.
 Iteration    2 A^-1*A deviation from unit magnitude is 1.11D-15 for    770.
 Iteration    2 A^-1*A deviation from orthogonality  is 4.04D-16 for   3805   1443.
 E= -3018.42653433034    
 DIIS: error= 1.30D-06 at cycle   1 NSaved=   1.
 NSaved= 1 IEnMin= 1 EnMin= -3018.42653433034     IErMin= 1 ErrMin= 1.30D-06
 ErrMax= 1.30D-06  0.00D+00 EMaxC= 1.00D-01 BMatC= 1.64D-09 BMatP= 1.64D-09
 IDIUse=1 WtCom= 1.00D+00 WtEn= 0.00D+00
 Coeff-Com:  0.100D+01
 Coeff:      0.100D+01
 Gap=     0.108 Goal=   None    Shift=    0.000
 RMSDP=4.89D-07 MaxDP=2.46D-05              OVMax= 1.85D-05

 Error on total polarization charges =  0.02872
 SCF Done:  E(RB3LYP) =  -3018.42653433     A.U. after    1 cycles
            NFock=  1  Conv=0.49D-06     -V/T= 2.0519
 KE= 2.869435419128D+03 PE=-2.367238569888D+04 EE= 9.405004791918D+03
 Leave Link  502 at Tue Jan 21 10:10:31 2014, MaxMem=  3221225472 cpu:      6085.5
 (Enter /pkg/chem/gaussian/g09d01/g09/l508.exe)
 QCSCF skips out because SCF is already converged.
 Leave Link  508 at Tue Jan 21 10:10:31 2014, MaxMem=  3221225472 cpu:         0.0
 (Enter /pkg/chem/gaussian/g09d01/g09/l801.exe)
 DoSCS=F DFT=T ScalE2(SS,OS)=  1.000000  1.000000
 ExpMin= 2.50D-02 ExpMax= 2.52D+04 ExpMxC= 3.78D+03 IAcc=3 IRadAn=         5 AccDes= 0.00D+00
 HarFok:  IExCor=  205 AccDes= 0.00D+00 IRadAn=         5 IDoV=-2 UseB2=F ITyADJ=14
 ICtDFT= 12500011 ScaDFX=  1.000000  1.000000  1.000000  1.000000
 Defaulting to unpruned grid for atomic number  44.
 Defaulting to unpruned grid for atomic number  44.
 Defaulting to unpruned grid for atomic number  44.
 Defaulting to unpruned grid for atomic number  44.
 Defaulting to unpruned grid for atomic number  44.
 Defaulting to unpruned grid for atomic number  44.
 Defaulting to unpruned grid for atomic number  44.
 Defaulting to unpruned grid for atomic number  44.
 Defaulting to unpruned grid for atomic number  44.
 Defaulting to unpruned grid for atomic number  44.
 Defaulting to unpruned grid for atomic number  44.
 Defaulting to unpruned grid for atomic number  44.
 Defaulting to unpruned grid for atomic number  44.
 Defaulting to unpruned grid for atomic number  44.
 Defaulting to unpruned grid for atomic number  44.
 Defaulting to unpruned grid for atomic number  44.
 Defaulting to unpruned grid for atomic number  44.
 Defaulting to unpruned grid for atomic number  44.
 Defaulting to unpruned grid for atomic number  44.
 Defaulting to unpruned grid for atomic number  44.
 Defaulting to unpruned grid for atomic number  44.
 Defaulting to unpruned grid for atomic number  44.
 Defaulting to unpruned grid for atomic number  44.
 Defaulting to unpruned grid for atomic number  44.
 Largest valence mixing into a core orbital is  1.30D-03
 Largest core mixing into a valence orbital is  8.44D-04
 Range of M.O.s used for correlation:    69  1129
 NBasis=  1152 NAE=   211 NBE=   211 NFC=    68 NFV=     0
 NROrb=   1061 NOA=   143 NOB=   143 NVA=   918 NVB=   918

 **** Warning!!: The largest alpha MO coefficient is  0.71353976D+02

 Leave Link  801 at Tue Jan 21 10:10:34 2014, MaxMem=  3221225472 cpu:        41.6
 (Enter /pkg/chem/gaussian/g09d01/g09/l914.exe)
 RHF ground state
 MDV=  3221225472 DFT=T DoStab=F Mixed=T DoRPA=T DoScal=F NonHer=T
 Would need an additional        699904400000 words for in-memory AO integral storage.
 NEqPCM:  Using non-equilibrium solvation (IEInf=1, Eps=  35.6880, EpsInf=   1.8069)
 Inv3:  Mode=1 IEnd=   120434688.
 Iteration    1 A*A^-1 deviation from unit magnitude is 8.66D-15 for   6327.
 Iteration    1 A*A^-1 deviation from orthogonality  is 3.53D-15 for   6327   5041.
 Iteration    1 A^-1*A deviation from unit magnitude is 8.44D-15 for   6327.
 Iteration    1 A^-1*A deviation from orthogonality  is 2.49D-15 for   6162   4917.
 Making orbital integer symmetry assigments:
   280 initial guesses have been made.
 Convergence on wavefunction:    0.001000000000000
 Davidson Disk Diagonalization:  ConvIn= 1.00D-03 SkipCon=T Conv= 1.00D-03.
 Max sub-space:  1120 roots to seek:   280 dimension of matrix:       262548
 Iteration     1 Dimension   280 NMult     0 NNew    280
 CISAX will form    72 AO SS matrices at one time.
 NMat=    72 NSing=    72 JSym2X= 0.
 FoFJK:  IHMeth= 1 ICntrl=       0 DoSepK=F KAlg= 0 I1Cent=   0 FoldK=F
 IRaf=         0 NMat= 144 IRICut=       1 DoRegI=T DoRafI=F ISym2E= 0.
 Defaulting to unpruned grid for atomic number  44.
 Defaulting to unpruned grid for atomic number  44.
 Defaulting to unpruned grid for atomic number  44.
 Defaulting to unpruned grid for atomic number  44.
 Defaulting to unpruned grid for atomic number  44.
 Defaulting to unpruned grid for atomic number  44.
 Defaulting to unpruned grid for atomic number  44.
 Defaulting to unpruned grid for atomic number  44.
 Defaulting to unpruned grid for atomic number  44.
 Defaulting to unpruned grid for atomic number  44.
 Defaulting to unpruned grid for atomic number  44.
 Defaulting to unpruned grid for atomic number  44.
 Defaulting to unpruned grid for atomic number  44.
 Defaulting to unpruned grid for atomic number  44.
 Defaulting to unpruned grid for atomic number  44.
 Defaulting to unpruned grid for atomic number  44.
 Defaulting to unpruned grid for atomic number  44.
 Defaulting to unpruned grid for atomic number  44.
 Defaulting to unpruned grid for atomic number  44.
 Defaulting to unpruned grid for atomic number  44.
 Defaulting to unpruned grid for atomic number  44.
 Defaulting to unpruned grid for atomic number  44.
 Defaulting to unpruned grid for atomic number  44.
 Defaulting to unpruned grid for atomic number  44.
 NMat=    72 NSing=    72 JSym2X= 0.
 NMat=    72 NSing=    72 JSym2X= 0.
 NMat=    64 NSing=    64 JSym2X= 0.
 New state      3 was old state      4
 New state      4 was old state      3
 New state      5 was old state      6
 New state      6 was old state      8
 New state      7 was old state      9
 New state      8 was old state     15
 New state      9 was old state     10
 New state     10 was old state     12
 New state     11 was old state      5
 New state     12 was old state     13
 New state     13 was old state     16
 New state     14 was old state     20
 New state     15 was old state     45
 New state     16 was old state     33
 New state     17 was old state     24
 New state     18 was old state      7
 New state     19 was old state     22
 New state     20 was old state     11
 New state     21 was old state     61
 New state     22 was old state     44
 New state     23 was old state     17
 New state     24 was old state     57
 New state     25 was old state     14
 New state     26 was old state     18
 New state     27 was old state     39
 New state     28 was old state     25
 New state     29 was old state     23
 New state     30 was old state     29
 New state     31 was old state     21
 New state     32 was old state     46
 New state     33 was old state     48
 New state     34 was old state     30
 New state     35 was old state     52
 New state     36 was old state     68
 New state     37 was old state     26
 New state     38 was old state     27
 New state     39 was old state     32
 New state     40 was old state     28
 New state     41 was old state     35
 New state     42 was old state     85
 New state     43 was old state     38
 New state     44 was old state     58
 New state     45 was old state     64
 New state     46 was old state     31
 New state     47 was old state     36
 New state     48 was old state     37
 New state     49 was old state     43
 New state     50 was old state     34
 New state     51 was old state     60
 New state     52 was old state     71
 New state     53 was old state     69
 New state     54 was old state     53
 New state     55 was old state     40
 New state     56 was old state     72
 New state     57 was old state     50
 New state     58 was old state    176
 New state     59 was old state    177
 New state     60 was old state     41
 New state     61 was old state     76
 New state     62 was old state    114
 New state     63 was old state     49
 New state     64 was old state    142
 New state     65 was old state    204
 New state     66 was old state     47
 New state     67 was old state     65
 New state     68 was old state     67
 New state     69 was old state     83
 New state     70 was old state     75
 Excitation Energies [eV] at current iteration:
 Root      1 :     2.437633616930497
 Root      2 :     2.604566666229213
 Root      3 :     2.620547085411281
 Root      4 :     2.630338483270955
 Root      5 :     2.652389841663732
 Root      6 :     2.663181385215888
 Root      7 :     2.666815543660081
 Root      8 :     2.825948837959979
 Root      9 :     2.845329826991595
 Root     10 :     2.859100333950021
 Root     11 :     2.937684689322218
 Root     12 :     2.999054306517943
 Root     13 :     3.023018342558151
 Root     14 :     3.108282930484807
 Root     15 :     3.229815479013247
 Root     16 :     3.277926571739928
 Root     17 :     3.291273106222119
 Root     18 :     3.315120072953438
 Root     19 :     3.337893094245455
 Root     20 :     3.378092353163622
 Root     21 :     3.394930076977681
 Root     22 :     3.407141789449009
 Root     23 :     3.449258839585104
 Root     24 :     3.489814645446354
 Root     25 :     3.499838248510784
 Root     26 :     3.538165823878710
 Root     27 :     3.541023704931830
 Root     28 :     3.600174427109080
 Root     29 :     3.643751478354506
 Root     30 :     3.647262558829316
 Root     31 :     3.670049991401273
 Root     32 :     3.720770563939201
 Root     33 :     3.762200166067622
 Root     34 :     3.768024994111963
 Root     35 :     3.769117548078047
 Root     36 :     3.777464830258935
 Root     37 :     3.778123524805531
 Root     38 :     3.789624609246129
 Root     39 :     3.813785429586937
 Root     40 :     3.827148596026141
 Root     41 :     3.841227875659545
 Root     42 :     3.876408158594825
 Root     43 :     3.879324495871213
 Root     44 :     3.883591167082698
 Root     45 :     3.884721571565350
 Root     46 :     3.918340007869410
 Root     47 :     3.920566408261090
 Root     48 :     3.942919608180419
 Root     49 :     3.943221071387086
 Root     50 :     3.947403469183995
 Root     51 :     3.968744038825728
 Root     52 :     3.973754810803678
 Root     53 :     4.007466821968997
 Root     54 :     4.027911094182573
 Root     55 :     4.037810666238054
 Root     56 :     4.045837943013164
 Root     57 :     4.046587385680747
 Root     58 :     4.052410140982967
 Root     59 :     4.059078628352276
 Root     60 :     4.076663874754593
 Root     61 :     4.082299697389400
 Root     62 :     4.128717584224527
 Root     63 :     4.185107260274807
 Root     64 :     4.207015060037900
 Root     65 :     4.218966041011474
 Root     66 :     4.219877724171417
 Root     67 :     4.221185944605302
 Root     68 :     4.244401389794170
 Root     69 :     4.268135447882144
 Root     70 :     4.284573632910644
 Root     71 :     4.294216208933602
 Root     72 :     4.297815406974581
 Root     73 :     4.303345656607373
 Root     74 :     4.317576220660653
 Root     75 :     4.318646706150810
 Root     76 :     4.328188315998861
 Root     77 :     4.339733102961698
 Root     78 :     4.348695801753603
 Root     79 :     4.373507765670245
 Root     80 :     4.417619961572971
 Root     81 :     4.418686951990829
 Root     82 :     4.485129115314249
 Root     83 :     4.485689001673316
 Root     84 :     4.486835134196567
 Root     85 :     4.487018104571500
 Root     86 :     4.494809638631582
 Root     87 :     4.510066522488422
 Root     88 :     4.520572266514171
 Root     89 :     4.549708513399458
 Root     90 :     4.553154855774844
 Root     91 :     4.571007443995795
 Root     92 :     4.577848566233119
 Root     93 :     4.587659314092424
 Root     94 :     4.596926250881138
 Root     95 :     4.599775807609628
 Root     96 :     4.608853045635034
 Root     97 :     4.615988946407426
 Root     98 :     4.616389946549929
 Root     99 :     4.621405774711662
 Root    100 :     4.623492162636372
 Root    101 :     4.641335551046660
 Root    102 :     4.643780184073269
 Root    103 :     4.653400859492798
 Root    104 :     4.669942943820248
 Root    105 :     4.678491095566904
 Root    106 :     4.688659660561418
 Root    107 :     4.741177918520386
 Root    108 :     4.754799522068264
 Root    109 :     4.776229154794175
 Root    110 :     4.777524879421283
 Root    111 :     4.780240806768274
 Root    112 :     4.788598744126497
 Root    113 :     4.800444034324713
 Root    114 :     4.829447234069972
 Root    115 :     4.837433662884115
 Root    116 :     4.853202692118392
 Root    117 :     4.860586398612267
 Root    118 :     4.879270809744360
 Root    119 :     4.885012465122506
 Root    120 :     4.888800007634961
 Root    121 :     4.895604267121264
 Root    122 :     4.900747356495236
 Root    123 :     4.911543864677072
 Root    124 :     4.926229514066478
 Root    125 :     4.956517058315301
 Root    126 :     4.976091703716480
 Root    127 :     4.984064876103516
 Root    128 :     5.033595574370413
 Root    129 :     5.043766921060149
 Root    130 :     5.052200296627090
 Root    131 :     5.064946416165967
 Root    132 :     5.069030502349918
 Root    133 :     5.070128934233137
 Root    134 :     5.081847013008415
 Root    135 :     5.088682437146609
 Root    136 :     5.105750009360215
 Root    137 :     5.115331279312697
 Root    138 :     5.116634068665963
 Root    139 :     5.124420263328250
 Root    140 :     5.143015750455378
 Root    141 :     5.144301562081189
 Root    142 :     5.147701083127882
 Root    143 :     5.154561767410357
 Root    144 :     5.173273257627481
 Root    145 :     5.176104237211677
 Root    146 :     5.184639415994964
 Root    147 :     5.198124668871503
 Root    148 :     5.204583915609115
 Root    149 :     5.214030706156819
 Root    150 :     5.214220233926649
 Root    151 :     5.234697666298283
 Root    152 :     5.238486094658863
 Root    153 :     5.239155314675860
 Root    154 :     5.257620774483028
 Root    155 :     5.274880102935548
 Root    156 :     5.282439997620247
 Root    157 :     5.290069317348890
 Root    158 :     5.300328587074433
 Root    159 :     5.314992536682740
 Root    160 :     5.319753409878373
 Root    161 :     5.338496535926637
 Root    162 :     5.345677060856173
 Root    163 :     5.355397579906803
 Root    164 :     5.357052014511791
 Root    165 :     5.379747257408448
 Root    166 :     5.384152123055238
 Root    167 :     5.384413561278897
 Root    168 :     5.384790663359604
 Root    169 :     5.394569669914126
 Root    170 :     5.399330700278209
 Root    171 :     5.407915047358096
 Root    172 :     5.408761243798696
 Root    173 :     5.414401306204924
 Root    174 :     5.417728517744922
 Root    175 :     5.419285639417200
 Root    176 :     5.426884958930605
 Root    177 :     5.435065852513388
 Root    178 :     5.439638114526412
 Root    179 :     5.454920523348079
 Root    180 :     5.457074849217141
 Root    181 :     5.477738083653101
 Root    182 :     5.488295645456323
 Root    183 :     5.494908477911520
 Root    184 :     5.498046745935172
 Root    185 :     5.509424559761995
 Root    186 :     5.517420423615840
 Root    187 :     5.528398154244650
 Root    188 :     5.531354883493107
 Root    189 :     5.532456575917647
 Root    190 :     5.564916837683503
 Root    191 :     5.565319458656401
 Root    192 :     5.567798305351437
 Root    193 :     5.572718063754997
 Root    194 :     5.573024404674410
 Root    195 :     5.574569006589793
 Root    196 :     5.587983309526454
 Root    197 :     5.589337549534847
 Root    198 :     5.590281005065689
 Root    199 :     5.591831771878022
 Root    200 :     5.601785436917247
 Root    201 :     5.609199805671455
 Root    202 :     5.611037365549177
 Root    203 :     5.616923195513982
 Root    204 :     5.618541151136048
 Root    205 :     5.621210633625066
 Root    206 :     5.629208010873095
 Root    207 :     5.635389220845059
 Root    208 :     5.643154172052791
 Root    209 :     5.656062619899678
 Root    210 :     5.662509674917009
 Root    211 :     5.666462527626787
 Root    212 :     5.670911411902096
 Root    213 :     5.672063987371375
 Root    214 :     5.681623766960985
 Root    215 :     5.683453572279063
 Root    216 :     5.684568441818102
 Root    217 :     5.718277804481636
 Root    218 :     5.727052524042088
 Root    219 :     5.728527035038501
 Root    220 :     5.732424319327705
 Root    221 :     5.735573089208249
 Root    222 :     5.738165990814081
 Root    223 :     5.738940055272693
 Root    224 :     5.744903481500279
 Root    225 :     5.758247690165224
 Root    226 :     5.764505714554034
 Root    227 :     5.768505745910760
 Root    228 :     5.773538063892990
 Root    229 :     5.777059025480297
 Root    230 :     5.779390333069874
 Root    231 :     5.780720127563589
 Root    232 :     5.802550676389867
 Root    233 :     5.805807648972430
 Root    234 :     5.807835095232063
 Root    235 :     5.822746584176092
 Root    236 :     5.825829828658077
 Root    237 :     5.829285656068151
 Root    238 :     5.835716041700616
 Root    239 :     5.837366706687990
 Root    240 :     5.842785371530676
 Root    241 :     5.847684378033509
 Root    242 :     5.849994231048031
 Root    243 :     5.852406935362120
 Root    244 :     5.855063542240853
 Root    245 :     5.857521414943717
 Root    246 :     5.868335185810708
 Root    247 :     5.879257099213516
 Root    248 :     5.888167824249537
 Root    249 :     5.889277808130544
 Root    250 :     5.905282381136451
 Root    251 :     5.913287878984784
 Root    252 :     5.914522095328931
 Root    253 :     5.932231336139746
 Root    254 :     5.939199086088001
 Root    255 :     5.950432014157244
 Root    256 :     5.986109680369665
 Root    257 :     6.016798440058295
 Root    258 :     6.019781224918325
 Root    259 :     6.022410357077421
 Root    260 :     6.024480507692130
 Root    261 :     6.034182132288397
 Root    262 :     6.070240775157316
 Root    263 :     6.072693546441380
 Root    264 :     6.073687228888610
 Root    265 :     6.133442044139463
 Root    266 :     6.144020544878376
 Root    267 :     6.146757269322635
 Root    268 :     6.153948963925139
 Root    269 :     6.159927207625552
 Root    270 :     6.167736833582637
 Root    271 :     6.253591004175187
 Root    272 :     6.318833555886656
 Root    273 :     6.338684492997620
 Root    274 :     6.473617546231025
 Root    275 :     6.521731676245548
 Root    276 :     6.531669855849340
 Root    277 :     6.674595395268409
 Root    278 :     6.690409860102861
 Root    279 :     6.861033660827620
 Root    280 :     7.045055517034239
 Iteration     2 Dimension   420 NMult   280 NNew    140
 CISAX will form    72 AO SS matrices at one time.
 NMat=    72 NSing=    72 JSym2X= 0.
 NMat=    68 NSing=    68 JSym2X= 0.
 Root      1 not converged, maximum delta is    0.020046995107268
 Root      2 not converged, maximum delta is    0.021035467329765
 Root      3 not converged, maximum delta is    0.028433838128444
 Root      4 not converged, maximum delta is    0.020885939731677
 Root      5 not converged, maximum delta is    0.137051514142313
 New state      6 was old state      7
 Root      6 not converged, maximum delta is    0.238073897151059
 New state      7 was old state      6
 Root      7 not converged, maximum delta is    0.320244584558022
 Root      8 not converged, maximum delta is    0.036211407611968
 Root      9 not converged, maximum delta is    0.039883118799703
 Root     10 not converged, maximum delta is    0.058736643797953
 Root     11 not converged, maximum delta is    0.020672950329597
 Root     12 not converged, maximum delta is    0.146549953340560
 Root     13 not converged, maximum delta is    0.053081542009297
 New state     14 was old state     18
 Root     14 not converged, maximum delta is    0.253865401301220
 New state     15 was old state     14
 Root     15 not converged, maximum delta is    0.228741042266625
 New state     16 was old state     15
 Root     16 not converged, maximum delta is    0.369962902170761
 New state     17 was old state     16
 Root     17 not converged, maximum delta is    0.222767822986169
 New state     18 was old state     17
 Root     18 not converged, maximum delta is    0.255554066904994
 Root     19 not converged, maximum delta is    0.237270658651421
 New state     20 was old state     21
 Root     20 not converged, maximum delta is    0.361595776086563
 New state     21 was old state     24
 Root     21 not converged, maximum delta is    0.285014767138058
 Root     22 not converged, maximum delta is    0.048866440008592
 Root     23 not converged, maximum delta is    0.311419845676824
 New state     24 was old state     20
 Root     24 not converged, maximum delta is    0.011234854907089
 New state     25 was old state     28
 Root     25 not converged, maximum delta is    0.290777420675026
 New state     26 was old state     25
 Root     26 not converged, maximum delta is    0.001543783422850
 Root     27 not converged, maximum delta is    0.022285757537319
 New state     28 was old state     26
 Root     28 not converged, maximum delta is    0.003258800709680
 New state     29 was old state     30
 Root     29 not converged, maximum delta is    0.089442071742049
 New state     30 was old state     29
 Root     30 not converged, maximum delta is    0.010371280434368
 Root     31 not converged, maximum delta is    0.014911032058702
 New state     32 was old state     42
 Root     32 not converged, maximum delta is    0.306182829975157
 New state     33 was old state     32
 Root     33 not converged, maximum delta is    0.119050584993050
 New state     34 was old state     33
 Root     34 not converged, maximum delta is    0.153595081214308
 New state     35 was old state     36
 Root     35 not converged, maximum delta is    0.286757139702745
 New state     36 was old state     35
 Root     36 not converged, maximum delta is    0.089819360607250
 New state     37 was old state     34
 Root     37 not converged, maximum delta is    0.159845602547080
 New state     38 was old state     37
 Root     38 not converged, maximum delta is    0.253028963678790
 New state     39 was old state     38
 Root     39 not converged, maximum delta is    0.016775403552274
 New state     40 was old state     58
 Root     40 not converged, maximum delta is    0.320690237576341
 New state     41 was old state     39
 Root     41 not converged, maximum delta is    0.104141311592590
 New state     42 was old state     59
 Root     42 not converged, maximum delta is    0.349851483830166
 New state     43 was old state     40
 Root     43 not converged, maximum delta is    0.010411599241047
 New state     44 was old state     41
 Root     44 not converged, maximum delta is    0.168086751391837
 Root     45 not converged, maximum delta is    0.309573097581333
 New state     46 was old state     49
 Root     46 not converged, maximum delta is    0.425027758285069
 New state     47 was old state     44
 Root     47 not converged, maximum delta is    0.132234655765583
 New state     48 was old state     47
 Root     48 not converged, maximum delta is    0.239643249458454
 New state     49 was old state     43
 Root     49 not converged, maximum delta is    0.178375185162297
 New state     50 was old state     46
 Root     50 not converged, maximum delta is    0.087982844059169
 New state     51 was old state     57
 Root     51 not converged, maximum delta is    0.307306075860176
 New state     52 was old state     51
 Root     52 not converged, maximum delta is    0.430726481136007
 New state     53 was old state     48
 Root     53 not converged, maximum delta is    0.256049881862436
 New state     54 was old state     65
 Root     54 not converged, maximum delta is    0.310806711876615
 New state     55 was old state     52
 Root     55 not converged, maximum delta is    0.219575971817874
 New state     56 was old state     50
 Root     56 not converged, maximum delta is    0.044127513016821
 New state     57 was old state     53
 Root     57 not converged, maximum delta is    0.295924884983718
 New state     58 was old state     56
 Root     58 not converged, maximum delta is    0.304143490856023
 New state     59 was old state     54
 Root     59 not converged, maximum delta is    0.087692405106887
 New state     60 was old state     55
 Root     60 not converged, maximum delta is    0.171672056164630
 Root     61 not converged, maximum delta is    0.380476676973364
 New state     62 was old state     64
 Root     62 not converged, maximum delta is    0.262893967325057
 New state     63 was old state     60
 Root     63 not converged, maximum delta is    0.389282846364993
 New state     64 was old state     62
 Root     64 not converged, maximum delta is    0.170110796053671
 New state     65 was old state     75
 Root     65 not converged, maximum delta is    0.433485179999478
 New state     66 was old state     63
 Root     66 not converged, maximum delta is    0.110830571132669
 Root     67 not converged, maximum delta is    0.410010183383133
 New state     68 was old state     66
 Root     68 not converged, maximum delta is    0.073354964920700
 New state     69 was old state     71
 Root     69 not converged, maximum delta is    0.399519149245710
 New state     70 was old state     80
 Root     70 not converged, maximum delta is    0.265019355049804
 Excitation Energies [eV] at current iteration:
 Root      1 :     2.429848867861327   Change is   -0.007784749069171
 Root      2 :     2.579741368818562   Change is   -0.024825297410651
 Root      3 :     2.615091827706149   Change is   -0.005455257705132
 Root      4 :     2.623456684746889   Change is   -0.006881798524065
 Root      5 :     2.625146628201544   Change is   -0.027243213462188
 Root      6 :     2.636209132259415   Change is   -0.030606411400665
 Root      7 :     2.636628995533075   Change is   -0.026552389682814
 Root      8 :     2.801418127612530   Change is   -0.024530710347449
 Root      9 :     2.818253823709833   Change is   -0.027076003281762
 Root     10 :     2.832592868500149   Change is   -0.026507465449872
 Root     11 :     2.928630007408578   Change is   -0.009054681913640
 Root     12 :     2.934551698745099   Change is   -0.064502607772843
 Root     13 :     2.940024724806415   Change is   -0.082993617751736
 Root     14 :     3.011828246544205   Change is   -0.303291826409233
 Root     15 :     3.063790840546281   Change is   -0.044492089938526
 Root     16 :     3.067948163359154   Change is   -0.161867315654093
 Root     17 :     3.186009184394500   Change is   -0.091917387345428
 Root     18 :     3.242509073878431   Change is   -0.048764032343688
 Root     19 :     3.291793613071979   Change is   -0.046099481173476
 Root     20 :     3.307507346952441   Change is   -0.087422730025240
 Root     21 :     3.320963327525439   Change is   -0.168851317920915
 Root     22 :     3.325564068459139   Change is   -0.081577720989871
 Root     23 :     3.330441001077043   Change is   -0.118817838508061
 Root     24 :     3.377957615768440   Change is   -0.000134737395182
 Root     25 :     3.496665988899843   Change is   -0.103508438209237
 Root     26 :     3.499803654333550   Change is   -0.000034594177234
 Root     27 :     3.524470671080145   Change is   -0.016553033851685
 Root     28 :     3.538142423498269   Change is   -0.000023400380441
 Root     29 :     3.593334986852926   Change is   -0.053927571976390
 Root     30 :     3.643263483401958   Change is   -0.000487994952547
 Root     31 :     3.669817159075744   Change is   -0.000232832325529
 Root     32 :     3.699649320553685   Change is   -0.176758838041140
 Root     33 :     3.702140809215621   Change is   -0.018629754723581
 Root     34 :     3.725943592420377   Change is   -0.036256573647246
 Root     35 :     3.729914972005865   Change is   -0.047549858253070
 Root     36 :     3.742352588583659   Change is   -0.026764959494388
 Root     37 :     3.761876814274872   Change is   -0.006148179837090
 Root     38 :     3.777922960743341   Change is   -0.000200564062190
 Root     39 :     3.789538245906312   Change is   -0.000086363339816
 Root     40 :     3.791807261755663   Change is   -0.260602879227303
 Root     41 :     3.810295485791170   Change is   -0.003489943795768
 Root     42 :     3.814826694131023   Change is   -0.244251934221253
 Root     43 :     3.827095517617563   Change is   -0.000053078408577
 Root     44 :     3.837414171025548   Change is   -0.003813704633997
 Root     45 :     3.844387161418768   Change is   -0.040334410146581
 Root     46 :     3.857387737113569   Change is   -0.085833334273517
 Root     47 :     3.859217851881285   Change is   -0.024373315201413
 Root     48 :     3.862785253631531   Change is   -0.057781154629558
 Root     49 :     3.870912886692473   Change is   -0.008411609178740
 Root     50 :     3.910710190634983   Change is   -0.007629817234427
 Root     51 :     3.921430712205316   Change is   -0.125156673475431
 Root     52 :     3.925552546241057   Change is   -0.043191492584672
 Root     53 :     3.941073285156456   Change is   -0.001846323023962
 Root     54 :     3.942548063775545   Change is   -0.276417977235928
 Root     55 :     3.943096563986694   Change is   -0.030658246816984
 Root     56 :     3.947441171855380   Change is    0.000037702671386
 Root     57 :     3.971686654803308   Change is   -0.035780167165689
 Root     58 :     4.001548192686382   Change is   -0.044289750326781
 Root     59 :     4.008448658604620   Change is   -0.019462435577953
 Root     60 :     4.022361577900471   Change is   -0.015449088337584
 Root     61 :     4.025113264444300   Change is   -0.057186432945101
 Root     62 :     4.064938925360899   Change is   -0.142076134677002
 Root     63 :     4.072414686006755   Change is   -0.004249188747838
 Root     64 :     4.076963905991919   Change is   -0.051753678232608
 Root     65 :     4.127752187018242   Change is   -0.190894519132569
 Root     66 :     4.165127445347903   Change is   -0.019979814926905
 Root     67 :     4.203131518840924   Change is   -0.018054425764378
 Root     68 :     4.204944357964076   Change is   -0.014933366207341
 Root     69 :     4.208865505646687   Change is   -0.085350703286915
 Root     70 :     4.223031567973502   Change is   -0.194588393599469
 Iteration     3 Dimension   560 NMult   420 NNew    140
 CISAX will form    72 AO SS matrices at one time.
 NMat=    72 NSing=    72 JSym2X= 0.
 NMat=    68 NSing=    68 JSym2X= 0.
 Root      1 has converged.
 Root      2 not converged, maximum delta is    0.001096321027677
 Root      3 not converged, maximum delta is    0.003295942672115
 Root      4 not converged, maximum delta is    0.001674144021228
 Root      5 not converged, maximum delta is    0.012080779476109
 Root      6 not converged, maximum delta is    0.010454903198572
 Root      7 not converged, maximum delta is    0.014621536651254
 Root      8 not converged, maximum delta is    0.001565713996251
 Root      9 not converged, maximum delta is    0.003401248778840
 Root     10 not converged, maximum delta is    0.002626459142115
 Root     11 not converged, maximum delta is    0.003144544271703
 Root     12 not converged, maximum delta is    0.004966285067928
 Root     13 not converged, maximum delta is    0.003698211617865
 Root     14 not converged, maximum delta is    0.013512657204140
[...]
 Alpha virt. eigenvalues --    0.46917   0.46986   0.47061   0.47207   0.47687
 Alpha virt. eigenvalues --    0.47788   0.48047   0.48535   0.49023   0.49324
 Alpha virt. eigenvalues --    0.49492   0.50527   0.50588   0.51213   0.51460
 Alpha virt. eigenvalues --    0.51817   0.51974   0.52857   0.53175   0.53520
 Alpha virt. eigenvalues --    0.53945   0.54206   0.54758   0.55018   0.55088
 Alpha virt. eigenvalues --    0.55495   0.55673   0.55929   0.56861   0.57611
 Alpha virt. eigenvalues --    0.57769   0.58384   0.58551   0.59435   0.59640
 Alpha virt. eigenvalues --    0.59723   0.59933   0.60406   0.60832   0.61338
 Alpha virt. eigenvalues --    0.62235   0.63924   0.64132   0.64982   0.65455
 Alpha virt. eigenvalues --    0.65496   0.66462   0.66655   0.67031   0.67097
 Alpha virt. eigenvalues --    0.67821   0.67918   0.68170   0.68727   0.68887
 Alpha virt. eigenvalues --    0.69469   0.69620   0.69799   0.69947   0.70283
 Alpha virt. eigenvalues --    0.70541   0.70836   0.70893   0.71335   0.71394
 Alpha virt. eigenvalues --    0.71893   0.72001   0.72135   0.72457   0.72602
 Alpha virt. eigenvalues --    0.72687   0.72823   0.73148   0.73362   0.73617
 Alpha virt. eigenvalues --    0.73715   0.74135   0.74221   0.74743   0.74961
 Alpha virt. eigenvalues --    0.75673   0.75830   0.76387   0.76478   0.76754
 Alpha virt. eigenvalues --    0.76975   0.77296   0.77495   0.77783   0.78063
 Alpha virt. eigenvalues --    0.78258   0.78487   0.78824   0.79117   0.79209
 Alpha virt. eigenvalues --    0.79576   0.79844   0.80077   0.80330   0.80865
 Alpha virt. eigenvalues --    0.80973   0.81148   0.81269   0.81491   0.82040
 Alpha virt. eigenvalues --    0.82494   0.82506   0.82746   0.83989   0.84109
 Alpha virt. eigenvalues --    0.84178   0.84465   0.84936   0.85015   0.85199
 Alpha virt. eigenvalues --    0.85372   0.85697   0.85806   0.85923   0.86671
 Alpha virt. eigenvalues --    0.87373   0.87784   0.87967   0.88025   0.88349
 Alpha virt. eigenvalues --    0.88460   0.88870   0.89184   0.89467   0.90195
 Alpha virt. eigenvalues --    0.90271   0.90429   0.90801   0.90889   0.91207
 Alpha virt. eigenvalues --    0.91834   0.92043   0.92149   0.92513   0.93124
 Alpha virt. eigenvalues --    0.93606   0.93722   0.93911   0.94094   0.94440
 Alpha virt. eigenvalues --    0.94882   0.94979   0.95020   0.95054   0.95331
 Alpha virt. eigenvalues --    0.95468   0.96504   0.96786   0.96905   0.97153
 Alpha virt. eigenvalues --    0.97665   0.97685   0.98563   0.99298   0.99425
 Alpha virt. eigenvalues --    0.99597   1.00389   1.00657   1.00774   1.01019
 Alpha virt. eigenvalues --    1.01286   1.01943   1.02271   1.02324   1.02692
 Alpha virt. eigenvalues --    1.03124   1.03920   1.04065   1.04482   1.04680
 Alpha virt. eigenvalues --    1.05355   1.05585   1.05846   1.06073   1.06573
 Alpha virt. eigenvalues --    1.06981   1.07537   1.07952   1.09225   1.09587
 Alpha virt. eigenvalues --    1.09946   1.10041   1.10304   1.10931   1.11143
 Alpha virt. eigenvalues --    1.11668   1.11732   1.12628   1.12823   1.13333
 Alpha virt. eigenvalues --    1.13716   1.13889   1.13936   1.14692   1.15026
 Alpha virt. eigenvalues --    1.15438   1.15821   1.16534   1.16718   1.17520
 Alpha virt. eigenvalues --    1.17684   1.18466   1.18570   1.18885   1.19235
 Alpha virt. eigenvalues --    1.19455   1.19556   1.19777   1.20233   1.20309
 Alpha virt. eigenvalues --    1.20496   1.20866   1.21398   1.21499   1.21586
 Alpha virt. eigenvalues --    1.22164   1.22516   1.22817   1.23155   1.23271
 Alpha virt. eigenvalues --    1.23504   1.23627   1.24188   1.24352   1.24443
 Alpha virt. eigenvalues --    1.24594   1.25430   1.25827   1.26163   1.26421
 Alpha virt. eigenvalues --    1.26552   1.26674   1.26748   1.27534   1.27975
 Alpha virt. eigenvalues --    1.28275   1.28976   1.29034   1.29170   1.29298
 Alpha virt. eigenvalues --    1.29659   1.30151   1.30444   1.30749   1.30886
 Alpha virt. eigenvalues --    1.31292   1.32062   1.32406   1.32862   1.32882
 Alpha virt. eigenvalues --    1.32919   1.33162   1.33634   1.33770   1.34047
 Alpha virt. eigenvalues --    1.34640   1.35155   1.35548   1.35804   1.36796
 Alpha virt. eigenvalues --    1.36932   1.37136   1.37321   1.37849   1.38059
 Alpha virt. eigenvalues --    1.38381   1.38695   1.39198   1.39634   1.40088
 Alpha virt. eigenvalues --    1.40893   1.41386   1.41652   1.41851   1.42415
 Alpha virt. eigenvalues --    1.42875   1.43339   1.43591   1.44514   1.44593
 Alpha virt. eigenvalues --    1.44882   1.45233   1.45625   1.45710   1.45789
 Alpha virt. eigenvalues --    1.46068   1.46499   1.46669   1.47035   1.47252
 Alpha virt. eigenvalues --    1.47402   1.47526   1.47680   1.48199   1.48336
 Alpha virt. eigenvalues --    1.48558   1.48998   1.49811   1.50010   1.50297
 Alpha virt. eigenvalues --    1.50587   1.50649   1.52293   1.52609   1.53490
 Alpha virt. eigenvalues --    1.53739   1.54650   1.54958   1.55587   1.55744
 Alpha virt. eigenvalues --    1.56044   1.56644   1.56961   1.57477   1.57873
 Alpha virt. eigenvalues --    1.58091   1.59565   1.60038   1.60621   1.61576
 Alpha virt. eigenvalues --    1.62960   1.63504   1.63827   1.64951   1.65357
 Alpha virt. eigenvalues --    1.65699   1.65777   1.67121   1.67478   1.68012
 Alpha virt. eigenvalues --    1.68341   1.69084   1.70017   1.70915   1.71209
 Alpha virt. eigenvalues --    1.71911   1.72844   1.72879   1.73570   1.73948
 Alpha virt. eigenvalues --    1.74198   1.74641   1.75712   1.76293   1.76945
 Alpha virt. eigenvalues --    1.77440   1.78246   1.78892   1.79288   1.79907
 Alpha virt. eigenvalues --    1.80041   1.80808   1.81501   1.82097   1.82115
 Alpha virt. eigenvalues --    1.83081   1.84235   1.84419   1.84552   1.85095
 Alpha virt. eigenvalues --    1.85219   1.85888   1.86394   1.86543   1.87096
 Alpha virt. eigenvalues --    1.87379   1.88534   1.88701   1.89200   1.89437
 Alpha virt. eigenvalues --    1.89814   1.90090   1.90467   1.91004   1.91067
 Alpha virt. eigenvalues --    1.91109   1.91653   1.92004   1.92355   1.92416
 Alpha virt. eigenvalues --    1.93207   1.94276   1.94523   1.94909   1.95142
 Alpha virt. eigenvalues --    1.95935   1.96052   1.96961   1.97452   1.97476
 Alpha virt. eigenvalues --    1.97955   1.99003   1.99018   1.99034   1.99383
 Alpha virt. eigenvalues --    2.00310   2.00684   2.00796   2.01310   2.01591
 Alpha virt. eigenvalues --    2.02807   2.03472   2.03864   2.03961   2.05039
 Alpha virt. eigenvalues --    2.05249   2.05957   2.06694   2.07517   2.07843
 Alpha virt. eigenvalues --    2.08063   2.08905   2.09211   2.10040   2.10388
 Alpha virt. eigenvalues --    2.11235   2.11575   2.12219   2.13412   2.13541
 Alpha virt. eigenvalues --    2.13625   2.14622   2.15146   2.15151   2.15474
 Alpha virt. eigenvalues --    2.15482   2.15874   2.15895   2.16197   2.16671
 Alpha virt. eigenvalues --    2.17955   2.18535   2.18753   2.18922   2.19192
 Alpha virt. eigenvalues --    2.19529   2.19808   2.20320   2.21108   2.21318
 Alpha virt. eigenvalues --    2.21873   2.21918   2.22966   2.23304   2.24110
 Alpha virt. eigenvalues --    2.24533   2.24841   2.25017   2.25147   2.25832
 Alpha virt. eigenvalues --    2.26283   2.26303   2.26879   2.26956   2.27209
 Alpha virt. eigenvalues --    2.27406   2.27482   2.27591   2.27888   2.28142
 Alpha virt. eigenvalues --    2.28777   2.28890   2.29648   2.29924   2.30108
 Alpha virt. eigenvalues --    2.31357   2.31697   2.31897   2.31993   2.32144
 Alpha virt. eigenvalues --    2.32693   2.32858   2.33476   2.33941   2.34590
 Alpha virt. eigenvalues --    2.35145   2.35284   2.38792   2.39252   2.39396
 Alpha virt. eigenvalues --    2.41039   2.42352   2.42759   2.43821   2.45021
 Alpha virt. eigenvalues --    2.45039   2.45824   2.45956   2.46876   2.47669
 Alpha virt. eigenvalues --    2.47780   2.48405   2.49224   2.49494   2.49763
 Alpha virt. eigenvalues --    2.52633   2.53427   2.54083   2.54657   2.54678
 Alpha virt. eigenvalues --    2.54989   2.55223   2.55788   2.55926   2.57682
 Alpha virt. eigenvalues --    2.57696   2.58936   2.59761   2.60514   2.60557
 Alpha virt. eigenvalues --    2.60637   2.61260   2.61421   2.61803   2.62207
 Alpha virt. eigenvalues --    2.63134   2.63734   2.63752   2.64407   2.65697
 Alpha virt. eigenvalues --    2.66105   2.67235   2.67333   2.68077   2.68304
 Alpha virt. eigenvalues --    2.68964   2.69072   2.70009   2.70413   2.70885
 Alpha virt. eigenvalues --    2.71374   2.72606   2.73082   2.73292   2.73710
 Alpha virt. eigenvalues --    2.74312   2.75080   2.75452   2.75647   2.75945
 Alpha virt. eigenvalues --    2.76871   2.77335   2.77500   2.79247   2.80016
 Alpha virt. eigenvalues --    2.81143   2.82965   2.83361   2.85270   2.86508
 Alpha virt. eigenvalues --    2.86984   2.87110   2.87169   2.88690   2.89185
 Alpha virt. eigenvalues --    2.89537   2.90636   2.92354   2.92571   2.94289
 Alpha virt. eigenvalues --    2.95193   2.95623   2.95675   2.98546   2.98778
 Alpha virt. eigenvalues --    2.99280   2.99869   3.00565   3.01913   3.02734
 Alpha virt. eigenvalues --    3.05825   3.08097   3.08126   3.09474   3.11260
 Alpha virt. eigenvalues --    3.12293   3.12455   3.13685   3.17820   3.17971
 Alpha virt. eigenvalues --    3.20957   3.25673   3.25955   3.26540   3.28063
 Alpha virt. eigenvalues --    3.33950   3.36027   3.37263   3.37384   3.39329
 Alpha virt. eigenvalues --    3.42072   3.47561   3.49073   3.51331   3.57629
 Alpha virt. eigenvalues --    9.94240   9.95262   9.96062  10.01474  10.21079
 Alpha virt. eigenvalues --   11.12559  11.12935  11.13681  11.35932  11.36389
 Alpha virt. eigenvalues --   17.24903  17.30441  17.31270  20.23544  20.39059
 Alpha virt. eigenvalues --   20.44908  34.19100  39.13549
          Condensed to atoms (all electrons):
 Mulliken charges:
               1
     1  Ru   1.209255
     2  N   -0.079283
     3  N   -0.017695
     4  C    0.112143
     5  C   -0.384209
     6  C   -0.542531
     7  C   -0.459891
     8  C    0.760920
     9  C    0.631749
    10  C   -0.526345
    11  C   -0.624618
    12  C   -0.399255
    13  C    0.022677
    14  H    0.250714
    15  H    0.230504
    16  H    0.231243
    17  H    0.225154
    18  H    0.225212
    19  H    0.231352
    20  H    0.230493
    21  H    0.251163
    22  N   -0.021366
    23  N   -0.078880
    24  C    0.024708
    25  C   -0.398712
    26  C   -0.624678
    27  C   -0.526460
    28  C    0.635694
    29  C    0.758649
    30  C   -0.459870
    31  C   -0.542902
    32  C   -0.381681
    33  C    0.109298
    34  H    0.250904
    35  H    0.230538
    36  H    0.231382
    37  H    0.225400
    38  H    0.225268
    39  H    0.231268
    40  H    0.230472
    41  H    0.250863
    42  N    0.327261
    43  N    0.323032
    44  C    0.244006
    45  C   -0.830096
    46  C   -0.596843
    47  C    0.588043
    48  C   -0.369463
    49  C   -0.361770
    50  C    0.583746
    51  C   -0.599299
    52  C   -0.833317
    53  C    0.246017
    54  H    0.252807
    55  H    0.232325
    56  H    0.248604
    57  H    0.248795
    58  H    0.232345
    59  H    0.253098
    60  C    0.057409
    61  C    0.071135
    62  C   -0.001906
    63  C   -0.004137
    64  N   -0.256827
    65  N   -0.257663
    66  C   -0.442492
    67  C   -0.479442
    68  C    0.553918
    69  C    0.521093
    70  C   -0.120679
    71  C   -0.473368
    72  H    0.255370
    73  H    0.253888
    74  H    0.261943
    75  C   -0.519271
    76  H    0.252553
    77  H    0.269892
    78  H    0.253448
    79  H    0.236961
    80  H    0.236794
    81  N   -0.104765
    82  N   -0.102701
    83  Rh   0.048661
    84  C    0.196686
    85  C    0.197967
    86  O   -0.262424
    87  O   -0.261831
    88  Cl  -0.518146
 Sum of Mulliken charges =   2.00000
 Mulliken charges with hydrogens summed into heavy atoms:
               1
     1  Ru   1.209255
     2  N   -0.079283
     3  N   -0.017695
     4  C    0.362857
     5  C   -0.153706
     6  C   -0.311288
     7  C   -0.234737
     8  C    0.760920
     9  C    0.631749
    10  C   -0.301133
    11  C   -0.393266
    12  C   -0.168762
    13  C    0.273839
    22  N   -0.021366
    23  N   -0.078880
    24  C    0.275612
    25  C   -0.168174
    26  C   -0.393297
    27  C   -0.301060
    28  C    0.635694
    29  C    0.758649
    30  C   -0.234603
    31  C   -0.311634
    32  C   -0.151209
    33  C    0.360161
    42  N    0.327261
    43  N    0.323032
    44  C    0.496813
    45  C   -0.597771
    46  C   -0.348239
    47  C    0.588043
    48  C   -0.369463
    49  C   -0.361770
    50  C    0.583746
    51  C   -0.350503
    52  C   -0.600972
    53  C    0.499116
    60  C    0.057409
    61  C    0.071135
    62  C   -0.001906
    63  C   -0.004137
    64  N   -0.256827
    65  N   -0.257663
    66  C   -0.205698
    67  C   -0.242482
    68  C    0.553918
    69  C    0.521093
    70  C   -0.120679
    71  C    0.297834
    75  C    0.256622
    81  N   -0.104765
    82  N   -0.102701
    83  Rh   0.048661
    84  C    0.196686
    85  C    0.197967
    86  O   -0.262424
    87  O   -0.261831
    88  Cl  -0.518146
         Mulliken charges condensed to fragments:
      1      1.209255
      2      0.369496
      3      0.369893
      4      0.650443
      5     -0.064456
      6     -0.065145
      7      0.048661
      8     -0.518146
 Electronic spatial extent (au):  <R**2>=         166909.3522
 Charge=              2.0000 electrons
 Dipole moment (field-independent basis, Debye):
    X=              4.7475    Y=            -21.8456    Z=            -11.9206  Tot=             25.3352
 Quadrupole moment (field-independent basis, Debye-Ang):
   XX=           -268.7286   YY=           -453.8027   ZZ=           -376.6902
   XY=            -45.8755   XZ=            -33.5905   YZ=           -120.3268
 Traceless Quadrupole moment (field-independent basis, Debye-Ang):
   XX=             97.6785   YY=            -87.3955   ZZ=            -10.2830
   XY=            -45.8755   XZ=            -33.5905   YZ=           -120.3268
 Octapole moment (field-independent basis, Debye-Ang**2):
  XXX=            400.2447  YYY=          12534.3267  ZZZ=           6294.1429  XYY=           1044.6994
  XXY=           2216.5413  XXZ=           1391.9545  XZZ=            395.1636  YZZ=           4932.7326
  YYZ=           5344.6560  XYZ=            490.9110
 Hexadecapole moment (field-independent basis, Debye-Ang**3):
 XXXX=          -7845.4287 YYYY=        -279891.6413 ZZZZ=         -98290.2436 XXXY=          -6645.5561
 XXXZ=          -3827.2662 YYYX=         -25116.1188 YYYZ=        -132717.0952 ZZZX=          -7888.0648
 ZZZY=         -88589.5063 XXYY=         -27039.8545 XXZZ=         -12451.7148 YYZZ=         -93954.6997
 XXYZ=         -16000.5661 YYXZ=         -11709.1473 ZZXY=          -7948.0467
 N-N= 8.379518953507D+03 E-N=-2.367238633513D+04  KE= 2.869435419128D+03
 Leave Link  601 at Wed Jan 22 15:55:50 2014, MaxMem=  3221225472 cpu:        32.8
 (Enter /pkg/chem/gaussian/g09d01/g09/l9999.exe)

 Test job not archived.
 1\1\GINC-ALPS2-45\SP\RB3LYP TD-FC\Gen\C43H30Cl1N10O2Rh1Ru1(2+)\J13JAY0
 0\22-Jan-2014\0\\#p b3lyp/gen pseudo=read nosymm scf(maxcycle=100,conv
 er=6,xqc) iop(4/5=1,9/40=2) EmpiricalDispersion=GD3 scrf(solvent=Aceto
 nitrile) td(nstates=70) geom(allcheck)\\RuRh_CH3_CO2Cl_model2 complex\
 \2,1\Ru,0,0.3377789517,-3.2427786238,-1.919464829\N,0,1.288342609,-2.1
 909507215,-3.4640265542\N,0,1.9664146292,-2.3941082498,-0.9160425211\C
 ,0,0.8716693798,-2.1441030351,-4.743812942\C,0,1.551639299,-1.43213742
 25,-5.7265475105\C,0,2.7110077179,-0.7403180169,-5.3719159112\C,0,3.14
 76489442,-0.787266736,-4.0496114134\C,0,2.4215050993,-1.5221217101,-3.
 106598327\C,0,2.7975534136,-1.6317157879,-1.6829562461\C,0,3.922633811
 7,-1.0156413173,-1.1254867287\C,0,4.196868337,-1.1780598491,0.23084316
 91\C,0,3.3367685597,-1.9572535024,1.0062802183\C,0,2.2347571409,-2.546
 4724435,0.3950097134\H,0,-0.0354705163,-2.6908866948,-4.9708418938\H,0
 ,1.1729620008,-1.4252360536,-6.7427896757\H,0,3.2677229766,-0.17224160
 75,-6.1101855035\H,0,4.0446319585,-0.2541630226,-3.7594234173\H,0,4.58
 12536635,-0.4145381215,-1.7400933309\H,0,5.0676022985,-0.7035991491,0.
 6717930428\H,0,3.5086807771,-2.1119609838,2.0658623533\H,0,1.54243154,
 -3.1631407166,0.9552300312\N,0,-0.8761906237,-1.6706896071,-1.25862476
 12\N,0,-0.5763724071,-4.0900827623,-0.2348055535\C,0,-0.962503439,-0.4
 594279246,-1.8411170504\C,0,-1.7940095988,0.5455178784,-1.3575132797\C
 ,0,-2.566833698,0.288610111,-0.2238848639\C,0,-2.4783146581,-0.9614572
 554,0.384951036\C,0,-1.6227139593,-1.9314443077,-0.1472300731\C,0,-1.4
 593435361,-3.2842950114,0.4212088194\C,0,-2.1401983016,-3.7402830609,1
 .5546851489\C,0,-1.9173568042,-5.0351756701,2.0183851935\C,0,-1.013644
 4891,-5.8518219463,1.3365880251\C,0,-0.366024121,-5.3414281474,0.21624
 25217\H,0,-0.3473652471,-0.30810467,-2.7198190713\H,0,-1.8285713219,1.
 503571369,-1.8646065473\H,0,-3.2285041685,1.0470149861,0.1819730975\H,
 0,-3.0715902677,-1.1750556772,1.2656148024\H,0,-2.8379569152,-3.094507
 1918,2.0732733284\H,0,-2.4411721059,-5.3974091177,2.8970726506\H,0,-0.
 8074302646,-6.866447984,1.6595083293\H,0,0.3483419479,-5.9357843996,-0
 .340482081\N,0,-1.1306082777,-4.1617935651,-3.1105120314\N,0,1.3483754
 545,-4.9763450453,-2.5474873872\C,0,-2.370301603,-3.7162096765,-3.3580
 471782\C,0,-3.2713108121,-4.4227857236,-4.1620884162\C,0,-2.8809908004
 ,-5.6279219287,-4.7291206704\C,0,-1.5855675254,-6.1133513265,-4.479206
 947\C,0,-0.739268377,-5.347720389,-3.6583379204\C,0,0.6095536658,-5.78
 61451951,-3.3587581911\C,0,1.1134282375,-6.9900092565,-3.8808292216\C,
 0,2.4300682162,-7.3550386083,-3.5502389565\C,0,3.1754097164,-6.5210592
 732,-2.7287228731\C,0,2.6027806254,-5.3394199316,-2.2453550479\H,0,-2.
 6400742243,-2.7694414187,-2.9050169556\H,0,-4.2625626453,-4.0170932935
 ,-4.3321295762\H,0,-3.5537112064,-6.198699851,-5.359054887\H,0,2.84264
 16117,-8.2787132252,-3.9397800201\H,0,4.1945541345,-6.7689990438,-2.45
 29690345\H,0,3.1550106635,-4.6694574562,-1.5969905945\C,0,-1.086349188
 6,-7.3721050544,-5.0369191957\C,0,0.2539796354,-7.8068016362,-4.740176
 4531\C,0,-1.4151580956,-9.247087269,-6.3254730162\C,0,-0.0642067268,-9
 .6853475719,-6.0254350427\N,0,0.7359832008,-8.9397780483,-5.2306833666
 \N,0,-1.8877780909,-8.0888126658,-5.8122992887\C,0,0.4408635962,-10.89
 91279609,-6.5617840079\C,0,-2.2601618006,-10.0234147711,-7.1625209421\
 C,0,-1.7335343408,-11.1893386796,-7.6649926466\C,0,-0.4065589323,-11.6
 19885964,-7.3686094735\C,0,-1.36417504,-13.1490918748,-8.7333690065\C,
 0,1.0027062362,-13.5983222333,-8.0049592956\H,0,1.8222403623,-13.00658
 13438,-8.4223778335\H,0,1.232188369,-13.8684313105,-6.97052299\H,0,0.8
 675304311,-14.503711735,-8.5969711251\C,0,-3.6299512669,-12.0959498762
 ,-9.0392678307\H,0,-3.7470856527,-11.183841105,-9.6311577085\H,0,-3.79
 16453259,-12.9685713432,-9.6714369377\H,0,-4.3506509377,-12.0964560824
 ,-8.2167716494\H,0,-3.2670218571,-9.6836449529,-7.3772340925\H,0,1.452
 1998391,-11.2127105632,-6.3289493383\N,0,-2.2727834682,-12.1609509248,
 -8.5025552691\N,0,-0.2345380828,-12.8225158488,-8.0452135874\Rh,0,-1.5
 928524865,-14.8010279079,-9.870913539\C,0,-2.5794293937,-15.6565246235
 ,-8.4403235609\C,0,-1.2693460736,-13.7538427826,-11.4692777729\O,0,-1.
 1996518139,-13.1232607093,-12.4264863281\O,0,-3.2656766598,-16.1251571
 444,-7.6476431034\Cl,0,-1.6804930825,-16.8646311049,-11.2028185144\\Ve
 rsion=AS64L-G09RevD.01\HF=-3018.4265343\RMSD=4.891e-07\PG=C01 [X(C43H3
 0Cl1N10O2Rh1Ru1)]\\@


 WORK FAITHFULLY FOR EIGHT HOURS A DAY AND DON'T WORRY.
 IN TIME YOU MAY BECOME BOSS AND WORK TWELVE HOURS A DAY
 AND HAVE ALL THE WORRY.
 Job cpu time:      29 days 19 hours 20 minutes 59.7 seconds.
 File lengths (MBytes):  RWF=  19700 Int=      0 D2E=      0 Chk=   3430 Scr=      1
 Normal termination of Gaussian 09 at Wed Jan 22 15:56:12 2014.
